LAMMPS data file via write_data, version 23 Jun 2022, timestep = 70001000

6350 atoms
41 atom types
5000 bonds
1 bond types

-251 251 xlo xhi
108.15752667160888 215.84247332839385 ylo yhi
108.15752667160888 215.84247332839385 zlo zhi

Masses

1 131.199997
2 57.049999
3 128.199997
4 101.099998
5 156.199997
6 71.08000199999999
7 115.099998
8 129.100006
9 163.199997
10 99.06999999999999
11 113.199997
12 128.100006
13 186.199997
14 147.199997
15 87.08000199999999
16 137.100006
17 114.099998
18 97.120003
19 103.099998
20 113.199997
21 131.199997
22 57.049999
23 128.199997
24 101.099998
25 156.199997
26 71.08000199999999
27 115.099998
28 129.100006
29 163.199997
30 99.06999999999999
31 113.199997
32 128.100006
33 186.199997
34 147.199997
35 87.08000199999999
36 137.100006
37 114.099998
38 97.120003
39 103.099998
40 113.199997
41 58.12

Atoms # full

6079 0 41 0 -231.6075805378847 129.8559514427012 130.95494463760159 4 -16 20
6212 0 41 0 -55.52558062938966 122.57984311724685 134.116577007307 5 6 -52
6307 0 41 0 31.348364276916627 131.29875264556142 116.267479581663 1 116 2
6271 0 41 0 33.288688013755305 110.16285176554763 122.78729389744755 -11 -28 -33
275 46 9 0 94.66589345156945 119.43484240797524 113.37390709575855 -1 2 -8
276 46 14 0 93.2788809698076 122.97484551311081 114.3969848064981 -1 2 -8
2546 425 9 0 107.08688314576433 108.60013297774768 113.47382736054747 -1 -14 -1
4923 821 6 0 105.148512259433 117.59195216087929 117.3159795880589 0 2 3
4745 791 9 0 109.02154770685873 128.75878281859843 111.3185032570745 0 12 0
4492 749 14 0 102.08134191950155 117.84576466799442 125.64541053997938 0 1 -4
4925 821 9 0 101.29865725252701 123.3825857696036 116.422078729392 0 2 3
4924 821 14 0 102.28649533043186 120.23000683881793 118.86010927461007 0 2 3
5711 952 9 0 107.20681152964156 118.77449154727098 131.64534142126325 0 3 1
5710 952 14 0 107.04860665338894 115.09256969998572 130.54728976741598 0 3 1
4746 791 14 0 107.27098390717678 128.23062573935505 114.72431337399796 0 12 0
4493 749 9 0 98.44633235811321 118.49873448625344 124.85585562795883 0 1 -4
4494 749 14 0 96.52347834335283 121.11946430960427 122.5069651114964 0 1 -4
5709 952 6 0 107.30321361898226 111.7631735133792 129.50368582525522 0 3 1
5544 924 14 0 102.7501075468958 129.85105385974916 127.25138963649036 0 3 0
4491 749 6 0 103.94150078100024 115.28517732992839 123.62980359361451 0 1 -4
4489 749 14 0 110.04563820679111 111.78852694901462 122.18280460149677 0 1 -4
4490 749 9 0 107.39457952660382 114.51913162672794 122.3592289921542 0 1 -4
623 104 9 0 108.04672684609768 125.43175215842118 121.38066341700848 0 3 10
4125 688 6 0 104.02358820805314 118.33147591230579 110.60102016639784 1 -10 -9
624 104 14 0 107.06471646454882 122.99982812789652 124.09465080548976 0 3 10
5708 952 9 0 104.69310184484512 109.50038828841477 127.61968532897336 0 3 1
4926 821 14 0 100.71222189557562 125.85907209180775 113.6739813728282 0 2 3
5712 952 14 0 109.81331939706887 121.24770526099306 133.20563428625687 0 3 1
273 46 6 0 97.50399703196942 115.56695748092497 117.83532807085264 -1 2 -8
274 46 14 0 97.10637595163456 117.05974382641959 114.22849511954307 -1 2 -8
5541 924 6 0 110.95137908842385 127.36509726428113 128.3864483150589 0 3 0
271 46 14 0 101.3752508076758 109.81448391125761 120.3091604743123 -1 2 -8
272 46 9 0 100.1311541875637 113.01149660380158 118.8162244623876 -1 2 -8
5542 924 14 0 109.8412066653066 130.2089434826937 126.1489140032673 0 3 0
5543 924 9 0 106.47001473056419 131.0688565797484 127.04444481069831 0 3 0
6047 0 41 0 97.54974731054361 110.88935393639797 111.72252257839288 5 66 -58
4922 821 9 0 108.5327507709797 118.70368286071782 115.38002894162605 0 2 3
5550 925 14 0 100.27987633570424 128.22093127356675 120.74698628905018 0 -7 4
5549 925 9 0 102.23374172689124 131.5627955998331 120.35012885806819 0 -7 4
2545 425 14 0 105.65858381891069 111.89418194450104 114.64861499692296 -1 -14 -1
4124 688 9 0 102.09639218674738 115.24757117237354 109.4383613042938 1 -10 -9
1947 325 6 0 110.01149861574795 131.837250904502 133.99426924022765 1 -2 5
6155 0 41 0 98.4747176693285 120.69821250151631 108.40201822495447 -2 -49 -24
1973 329 9 0 130.33988121539755 109.83075863408386 131.87611731089896 1 4 -1
6223 0 41 0 116.68885982153823 114.17144758441871 118.24577740656966 -1 -44 -52
5545 925 14 0 111.96771372716191 133.50471733115344 117.80892603452368 0 -7 4
622 104 14 0 111.93389250571272 126.4593353178363 120.11969196570298 0 3 10
4162 694 14 0 127.0704087249839 134.22724805794317 110.07572805650344 0 2 6
351 59 6 0 119.83421025978991 113.5147479920181 123.84406393265411 0 -8 4
352 59 14 0 116.92459451648017 110.86496293446078 124.6014449118726 0 -8 4
620 104 9 0 116.76232060264329 128.1661213970899 115.39167372055445 0 3 10
619 104 14 0 115.93749158581434 126.48363168200034 112.27799332152365 0 3 10
621 104 6 0 114.65273840103677 127.7725536756369 118.24967284202731 0 3 10
4921 821 14 0 111.59602909495804 120.63582710270126 116.90118631683767 0 2 3
5664 944 14 0 127.14556811444471 116.5354410734869 111.30079942278941 0 -13 7
3084 514 14 0 125.47885159456612 121.38678033359113 123.18286790721359 -1 -7 -14
3083 514 9 0 123.24173011802726 121.43377254977204 126.32144847503169 -1 -7 -14
3081 514 6 0 116.68682128616948 121.40832468081756 129.57603778293443 -1 -7 -14
3082 514 14 0 120.56416062662069 121.56404000954483 129.38977812087523 -1 -7 -14
3328 555 14 0 124.99071668812608 131.02518094468508 117.82122014410155 0 -1 4
350 59 9 0 123.129505688972 113.97083365519202 122.77271712153262 0 -8 4
6060 0 41 0 120.88923156847733 118.6254536665596 119.05631335411292 5 -72 -89
349 59 14 0 123.24709123273753 112.37133658779477 119.24838187598792 0 -8 4
3326 555 9 0 124.92728133616615 124.42327043454684 116.30013987890763 0 -1 4
3325 555 14 0 122.40880229486531 122.71305162206292 114.01612286269729 0 -1 4
29 5 9 0 131.0491651053079 111.47220768942184 121.3337673500426 -1 9 -9
1454 243 9 0 128.8532602180198 128.12348248138437 128.6742906904254 0 2 -8
3327 555 6 0 123.84150214690622 127.54769169725255 118.45546446783301 0 -1 4
821 137 9 0 123.17289483719374 111.77051903992255 129.4767905940608 0 2 -3
822 137 14 0 122.26737392529832 114.90639333012861 130.57625529278425 0 2 -3
1455 243 6 0 125.59779567115434 128.81741653925985 127.31824077846643 0 2 -8
5663 944 9 0 123.47738210228422 116.40669444832082 109.5061352550452 0 -13 7
5540 924 9 0 114.7886914679477 127.75085736926754 129.02836763490367 0 3 0
1457 243 9 0 120.91879044493723 130.79056397643723 123.53613876398026 0 2 -8
1456 243 14 0 121.88215790545958 128.6307541098673 126.52537198976468 0 2 -8
4740 790 14 0 119.06424032395725 111.76539509718016 112.27769465440596 0 -4 -1
3674 613 9 0 114.29360991117241 113.6786633049404 131.53721572824793 0 -2 -2
3080 514 9 0 114.91952519551631 121.56913240214465 126.24950751188861 -1 -7 -14
3079 514 14 0 115.93309207759546 121.31977174261343 122.38927076512572 -1 -7 -14
5539 924 14 0 117.42324915035148 127.6613041706962 132.08518120674313 0 3 0
1458 243 14 0 118.04728995604766 132.3383924298463 121.25101341267934 0 2 -8
4159 694 14 0 117.90609860926791 134.055249414019 112.44213878363787 0 2 6
4739 790 9 0 115.68893571158081 109.79161663340065 113.77240735403743 0 -4 -1
353 59 9 0 116.44153390439362 108.91498701011895 121.1474575143809 0 -8 4
3329 555 9 0 128.85477335478504 131.68890261261097 117.28748762808709 0 -1 4
820 137 14 0 122.9244068074674 108.77361027253293 127.47587939940195 0 2 -3
6055 0 41 0 126.29969817376991 133.76611202144798 123.54618318347019 10 13 47
6041 0 41 0 123.63204242237244 128.6872646956572 111.82895158334401 10 51 -69
3403 568 14 0 130.58802233188254 116.72051229569799 129.2862111050173 2 0 10
3675 613 6 0 116.57210035651973 116.83506071169654 131.43217441741587 0 -2 -2
3330 555 14 0 131.13348736090882 131.00070883281015 119.96755652149419 0 -1 4
2395 400 14 0 123.34179167007605 131.819684536723 132.4203079478472 1 -2 6
1453 243 14 0 128.2177529077626 124.3974728668111 129.78899535283858 0 2 -8
1969 329 14 0 118.6661817611648 108.2512508500895 134.20990479316663 1 4 -1
30 5 14 0 129.89702156736894 115.35229172195864 121.20822812405808 -1 9 -9
379 64 14 0 113.30098738981508 117.33959992137339 108.8828409115308 -1 3 -6
4795 800 14 0 128.6934254597685 110.10104483237077 112.68033789204625 1 -6 -9
6316 0 41 0 -94.96937460249127 157.70952452576347 130.24251171831588 3 -159 -15
5407 902 14 0 105.63028012170969 160.41177338146116 126.17674446983021 0 -11 5
5548 925 14 0 103.0615576063702 134.90775178069381 122.6524496083293 0 -7 4
4585 765 14 0 102.51743684834676 143.201386768343 118.18050509152177 0 -2 2
4586 765 9 0 103.24029845878984 141.7151021885615 122.03105181113789 0 -2 2
4587 765 6 0 105.14969992267132 144.49054122027968 124.19862131769025 0 -2 2
4588 765 14 0 107.6383248479946 143.2571639732737 126.75660729365485 0 -2 2
4589 765 9 0 110.5189073143713 145.35541022388796 128.0962427944998 0 -2 2
5547 925 6 0 106.67063513455477 135.4688236560492 122.05179785094651 0 -7 4
2667 445 6 0 107.34586494451585 141.70918637964897 134.0806464977885 -1 -3 5
2469 412 6 0 103.9094561200465 152.45752408818166 128.80868623523608 -1 5 -12
2470 412 14 0 100.99410883419019 150.3012217078163 129.00437496274364 -1 5 -12
2666 445 9 0 104.62231826913828 139.29088370589588 133.24791451204416 -1 -3 5
2665 445 14 0 103.02130438189698 136.4815627485108 131.61885498390146 -1 -3 5
2471 412 9 0 100.29344275619734 146.69818545027658 127.3442952152451 -1 5 -12
2472 412 14 0 98.32112252209282 143.5503264910655 128.0408546144287 -1 5 -12
6218 0 41 0 97.30681951628536 145.4896726708615 120.8737165861769 -3 -24 -91
3601 601 14 0 107.18870508651713 146.7243209837774 110.54519539169489 0 -9 2
6131 0 41 0 104.97736276680361 146.3762655982453 131.7461416521417 5 -57 43
5546 925 9 0 110.26568695626125 134.8909247650583 120.89064598971738 0 -7 4
3604 601 14 0 110.27745778946807 141.75256849617787 117.82776353265919 0 -9 2
3603 601 6 0 108.84531805158625 144.74562585344944 116.29719366744956 0 -9 2
3602 601 9 0 109.71940298166014 147.6091119456145 113.61256844586713 0 -9 2
2467 412 14 0 110.56224289489755 154.4602753830097 130.78941834124475 -1 5 -12
3872 646 9 0 107.90883236300748 135.96557922214507 111.09213205734041 0 -5 -4
4238 707 9 0 109.91404859038055 149.2754990584676 120.97087668193049 0 5 -11
4237 707 14 0 107.2095826427767 151.62744584184213 120.53234190951932 0 5 -11
2941 491 14 0 103.09917908188456 160.39138484048485 132.87179085174418 0 -11 1
2468 412 9 0 107.06375001712873 153.22116308733177 130.75374694372255 -1 5 -12
1946 325 9 0 110.61439427143421 135.558718168746 132.38654233876468 1 -2 5
134 23 9 0 109.11012883229108 158.60867181196136 115.66487457938247 0 6 8
5411 902 9 0 96.05435693174992 160.4687741376972 130.95716905805315 0 -11 5
2764 461 14 0 114.80928190699548 160.47797915731644 129.6778050580539 -1 -10 5
4468 745 14 0 123.25988100903167 156.91041767784375 126.4018369265735 1 7 2
561 94 6 0 131.01635216818022 157.10966039877673 123.86651590676242 0 10 -6
3873 646 6 0 111.51516192433839 137.84701718411648 111.66772249130385 0 -5 -4
4161 694 6 0 124.05190350037412 136.49741169111311 110.60700672820124 0 2 6
4160 694 9 0 120.90486465619055 136.17480904125512 112.51766240542428 0 2 6
2761 461 14 0 115.73176287220736 159.78385386662464 121.4188070938513 -1 -10 5
4080 680 14 0 119.87065197981381 158.8483520957381 108.92444777246337 1 -2 3
2762 461 9 0 113.15831232723029 158.30874016744994 123.62525759831802 -1 -10 5
5876 980 9 0 124.97535363916724 142.31634042627232 108.95436350664178 1 3 1
4321 721 14 0 128.76884751956663 135.13164390306392 129.92653735599006 0 2 -1
3261 544 6 0 124.60257838340196 149.39064501112694 108.36087183368744 -1 -4 10
2763 461 6 0 114.08889364343335 157.72141757890142 127.22355752672715 -1 -10 5
4590 765 14 0 111.44884281989206 146.85565313862352 131.32822977961425 0 -2 2
1945 325 14 0 112.08067549100846 136.2127770360897 128.7801192483883 1 -2 5
1471 246 14 0 126.49917959950706 144.79551325041533 123.16113313772918 0 5 -1
4322 721 9 0 126.39313995167677 137.94933703981667 128.83538929685088 0 2 -1
3210 535 14 0 126.98315327326604 151.65487895921225 129.625437252541 0 1 -5
3874 646 14 0 113.40072972900373 140.61851626554923 110.17024373925848 0 -5 -4
3606 601 14 0 114.30740799196265 140.0400379920575 123.23883341808012 0 -9 2
4241 707 9 0 119.64678279440055 154.4378436944307 117.24594818568634 0 5 -11
3605 601 9 0 112.47703699888864 142.34608304437825 121.04402391667584 0 -9 2
6138 0 41 0 123.90308329210085 150.89504657630545 123.44306557685466 0 -95 -22
5656 943 14 0 126.69387170803157 140.4056929267895 117.94907286050154 0 -3 -10
3262 544 14 0 121.86730131185513 150.1750717721139 110.82420170774957 -1 -4 10
5655 943 6 0 124.59684126079094 138.74393717965188 121.20032679998559 0 -3 -10
5653 943 14 0 120.20448938430363 137.9782412483743 126.24589396713276 0 -3 -10
5654 943 9 0 121.68772464519053 139.09977661119518 123.07059597775553 0 -3 -10
559 94 14 0 128.39387733393457 155.3519425004059 118.97996024820787 0 10 -6
3876 646 14 0 117.86706140033303 142.06189040527943 115.18355330583839 0 -5 -4
4465 745 14 0 115.72278852306171 151.16526835589997 124.88842111455257 1 7 2
6057 0 41 0 117.52161299640599 135.59225960505893 131.91354173936872 -5 37 -6
4916 820 9 0 120.71256367882125 147.18069258219376 118.34926323184108 -1 12 1
4915 820 14 0 120.10760038591101 145.86801521392883 121.73084086425305 -1 12 1
3875 646 9 0 115.70845487885283 143.0691701509674 112.33940490359976 0 -5 -4
4467 745 6 0 119.95287240393549 154.73699295070142 127.00644032760935 1 7 2
4466 745 9 0 118.82684028154972 151.02127453050304 127.11779074215035 1 7 2
3264 544 14 0 115.33539974290282 152.8834546185318 111.24901496950142 -1 -4 10
1473 246 6 0 122.08320557690261 143.4877172688627 127.97218739253367 0 5 -1
3263 544 9 0 118.66301974370658 151.89581230788767 110.17982387917336 -1 -4 10
4323 721 6 0 128.73123728672132 140.01898988658107 126.35118614646328 0 2 -1
4917 820 6 0 124.17894579106597 148.7516201103283 118.12919619538036 -1 12 1
4239 707 6 0 113.08460666276721 150.61382469969675 119.83707909141519 0 5 -11
560 94 9 0 129.03902649907732 154.56437033515164 122.62996287971187 0 10 -6
4240 707 14 0 116.54334614935097 153.013127212559 118.89832779323568 0 5 -11
4242 707 14 0 119.77314902937029 157.46980818811423 115.71829202699121 0 5 -11
1472 246 9 0 125.27774834548255 145.28398911298785 126.3915594479369 0 5 -1
5875 980 14 0 124.22925031922654 143.90941991916603 112.22982535734616 1 3 1
133 23 14 0 112.38235303762929 158.87227653466095 113.86366749279838 0 6 8
1474 246 14 0 118.14250333644426 144.6961966076825 128.0720877713811 0 5 -1
1475 246 9 0 116.15758056766929 141.9953130290189 130.66123086776983 0 5 -1
3208 535 14 0 126.32510943674998 145.277453307488 133.103082958009 0 1 -5
1476 246 14 0 114.77577520122895 140.70568153963742 133.9393422779293 0 5 -1
3209 535 9 0 127.03187735413859 148.9444249989695 132.4923198079073 0 1 -5
4918 820 14 0 127.53188617134583 148.83470980492447 115.94559563226034 -1 12 1
4919 820 9 0 129.75561105745874 147.26191753270354 113.13392623769977 -1 12 1
5657 943 9 0 129.19641738599998 138.64336604452424 115.42272643476139 0 -3 -10
3207 535 6 0 122.17588324059574 145.06907254356292 133.30118309163376 0 1 -5
482 81 9 0 118.9797749930027 156.25319544058019 133.8755960485248 0 4 5
481 81 14 0 122.36494139178568 154.4779607932149 133.5015445150206 0 4 5
3205 535 14 0 116.70404834415035 150.325360920036 133.16629312545157 0 1 -5
3206 535 9 0 120.00454346151189 148.21482385860708 133.2477365003808 0 1 -5
4469 745 9 0 123.73295491752619 159.4889991035549 123.25837523584642 1 7 2
6149 0 41 0 -202.9174481983777 110.5737164125512 160.47603669007404 8 138 52
6185 0 41 0 -139.00326853747492 119.79656948921011 135.20836405107346 7 -1 56
6022 0 41 0 -138.6209362826599 116.97517302353086 154.10025258302483 -3 -66 7
6104 0 41 0 -20.964105042071427 112.0911135715802 137.7381217475427 -1 22 -63
6116 0 41 0 54.92321040770376 113.18822116037119 141.44574451392126 0 -197 24
4866 811 14 0 105.36911051966405 119.1014074709247 157.56776062042275 0 0 7
5997 1000 6 0 111.07593485877183 114.03072690806715 149.11553785286236 0 2 -12
1715 286 9 0 103.15794449226958 130.86269295698656 138.47816845238228 0 3 4
1711 286 14 0 98.87093711409284 120.72409075322399 141.677239766469 0 3 4
1713 286 6 0 101.69258124268937 126.41068960166362 144.0458092049567 0 3 4
1714 286 14 0 102.50320753152977 129.74135781894947 142.05784819187377 0 3 4
1712 286 9 0 98.59736227432741 124.00926121888057 144.1540577497577 0 3 4
5999 1000 9 0 106.57663393322296 117.72247807463872 147.89608941494075 0 2 -12
6000 1000 14 0 104.33402917884546 119.49198464934427 145.76652976330666 0 2 -12
5998 1000 14 0 110.05321502835135 117.62628194432227 149.06033171210657 0 2 -12
1948 325 14 0 110.39491782201023 129.41029720802598 136.91438312459078 1 -2 5
5107 852 14 0 110.67299251283484 131.0381539516308 149.8907611793723 1 -8 1
2273 379 9 0 104.53179028044427 126.98657293210425 149.49648912812742 0 -8 0
5110 852 14 0 107.70874560854648 125.17441962148058 142.88818496015224 1 -8 1
5111 852 9 0 105.54334739610879 124.07481600678759 139.656363845914 1 -8 1
2274 379 14 0 107.12219172912475 124.71815939876615 151.27224663778588 0 -8 0
5112 852 14 0 103.98497010775324 121.07083367729176 137.81986348177634 1 -8 1
2272 379 14 0 104.42052246520876 130.67911150647703 148.88092189488603 0 -8 0
4862 811 9 0 109.12287551825894 128.0494813356905 156.79208706387163 0 0 7
4861 811 14 0 106.14726573748527 129.94868636020504 156.03241942356243 0 0 7
4804 801 14 0 110.13778175715453 118.72568860190515 140.86942958149666 0 -4 4
2269 379 14 0 94.34140896932769 133.3950598164712 150.38619663474014 0 -8 0
2271 379 6 0 100.88542997629865 132.09362240701512 149.76178268931383 0 -8 0
2270 379 9 0 97.29148795572976 131.3698289995432 149.48381266729243 0 -8 0
5109 852 6 0 108.54417056339341 128.48617297143733 144.26677979494306 1 -8 1
4865 811 9 0 107.85054198190291 120.86116895768498 159.3453134618127 0 0 7
1716 286 14 0 102.92502557815163 130.43787006098108 134.70636835344354 0 3 4
1971 329 6 0 125.2187085108272 108.47711695097244 136.30693882911834 1 4 -1
1912 319 14 0 129.40717713608026 133.12249782991194 158.69579059645096 1 8 -9
4864 811 14 0 111.59160989644714 121.6844990428572 158.91092070555058 0 0 7
2344 391 14 0 127.94744996846457 111.71829552727064 141.8165746797169 0 0 -1
1735 290 14 0 120.08203718455167 122.22716224603191 159.01274401355653 0 -1 -6
4044 674 14 0 127.45585584155444 126.71269873687608 135.83134145427036 -1 0 -5
3290 549 9 0 126.85993871270728 112.65717632197551 149.74669734501433 0 -3 -3
3673 613 14 0 112.25252853057285 114.50484194344521 134.82687106727616 0 -2 -2
2955 493 6 0 130.43880436956508 126.20093422389522 150.88198905900114 0 -6 0
3291 549 6 0 128.20571102668433 109.46531798556013 148.25981261787393 0 -3 -3
2957 493 9 0 129.59042104533233 125.44983122128419 157.19169950870423 0 -6 0
2956 493 14 0 130.7637794167247 127.56631122201541 154.2917373761299 0 -6 0
1970 329 9 0 121.69605502824899 109.89552844658954 136.18020881623542 1 4 -1
2954 493 9 0 130.65311487887303 122.37681398293945 149.63111728527994 0 -6 0
2398 400 14 0 131.29530743259244 133.71139993039634 136.2440638705525 1 -2 6
4863 811 6 0 111.55672203753821 125.62912314624263 158.99626871680184 0 0 7
4805 801 9 0 112.9713076187343 120.79030517914224 139.51135525494982 0 -4 4
1949 325 9 0 113.08507695828337 129.99479923023495 139.67464985184162 1 -2 5
578 97 9 0 128.5213751844729 115.79834889913514 156.87867455502973 0 0 4
5996 1000 9 0 111.3400147047522 110.77397556850136 147.63405491817062 0 2 -12
1740 290 14 0 116.04879394303522 123.76451754753121 146.33604043528024 0 -1 -6
1739 290 9 0 114.34394301460298 122.97863437569616 149.8629485828428 0 -1 -6
5108 852 9 0 111.39049345692358 129.8216160584681 146.6649888591295 1 -8 1
4806 801 14 0 114.75818130472477 123.23660917481199 137.6446080474006 0 -4 4
6045 0 41 0 115.76390948214117 117.2594709219227 158.9481154369938 0 75 -68
2346 391 14 0 127.40015626867799 116.28422993828084 136.22378525922565 0 0 -1
1950 325 14 0 116.69250334617276 129.42668366793527 140.8263299546466 1 -2 5
1987 332 14 0 123.67675391612913 127.09868213450454 153.0368963508421 1 5 8
5568 928 14 0 112.77991619924057 109.28011901091757 139.63091230538265 0 1 11
1738 290 14 0 115.66075234344216 122.12701063726674 152.9372494009073 0 -1 -6
577 97 14 0 127.53381272916508 119.37571313299452 155.98336155425594 0 0 4
1736 290 9 0 118.64987866686015 125.49918656117252 158.02039383314764 0 -1 -6
1737 290 6 0 116.00438300900218 125.11000538146239 155.25383853901167 0 -1 -6
4043 674 9 0 124.22138487046259 126.87408865558112 137.6197445138371 -1 0 -5
3289 549 14 0 127.1190740813503 116.48446395924263 149.41420628036747 0 -3 -3
4801 801 14 0 117.97143267017253 113.52109496323692 146.77015710318048 0 -4 4
4039 674 14 0 125.59818906753304 119.98516294680151 144.2750821213616 -1 0 -5
4802 801 9 0 115.24881401554084 114.92673255397371 144.33492087836456 0 -4 4
784 131 14 0 123.05344193412843 130.08359650814683 143.2681523268498 1 -1 11
553 93 14 0 116.63461730223176 113.20084238567485 153.67892227966453 0 -10 -2
783 131 6 0 120.55371370808167 132.5983653828827 144.0326885795337 1 -1 11
3678 613 14 0 121.6078165145635 115.3881910421207 140.6519590503831 0 -2 -2
3677 613 9 0 118.59004462496816 116.47916385539627 138.31027086123922 0 -2 -2
5299 884 14 0 113.1828876417614 109.82358671906725 159.67154704070086 0 -3 -6
4040 674 9 0 122.8147790071554 122.26647544481465 143.45186225646586 -1 0 -5
2397 400 6 0 127.53914108387805 133.54861963667926 137.12194041633384 1 -2 6
2396 400 9 0 123.80279548901775 134.14870861287324 135.64756979233692 1 -2 6
4042 674 14 0 121.085636839857 124.62439338675036 137.2977652164973 -1 0 -5
786 131 14 0 129.78450338213196 128.4131884760546 144.0029369044631 1 -1 11
4041 674 6 0 121.40127180568385 121.98503778539188 139.82469764929178 -1 0 -5
4803 801 6 0 111.54098663947876 115.89984249474728 142.66979431733597 0 -4 4
785 131 9 0 126.26272848057212 128.9223302531773 144.36369459668836 1 -1 11
554 93 9 0 119.07271422825866 111.94787410254519 156.1551102376758 0 -10 -2
555 93 6 0 122.6533864787614 111.29721168719911 155.9301611468473 0 -10 -2
6299 0 41 0 121.24695957058816 121.45007620113228 149.34564957502985 -5 9 21
3676 613 14 0 118.49130543708753 117.81363452243929 134.69473463914278 0 -2 -2
1990 332 14 0 116.06525092295662 131.01932666295065 154.61151327203288 1 5 8
2345 391 9 0 128.04244874310618 113.26791678130246 138.49214840443693 0 0 -1
1988 332 9 0 121.0138174537589 127.80744660742175 150.26304271483392 1 5 8
1989 332 6 0 117.12590259269759 128.97285734269312 151.22117950373706 1 5 8
579 97 6 0 130.08107226601123 115.33716110035881 160.34730200798114 0 0 4
2799 467 6 0 128.99351619042545 133.72576939472242 148.6950600273243 0 -1 -2
2343 391 6 0 131.2794844698076 110.78144897457871 143.5538628174443 0 0 -1
6264 0 41 0 -216.93285035135045 151.48476005291542 156.63863080340548 9 23 49
6091 0 41 0 -3.1095343414114667 156.53324381985502 137.43423765964118 4 -35 -46
2911 486 14 0 108.47625747619962 155.43789560490947 158.47639257104174 0 0 -9
3517 587 14 0 102.03287923334204 147.81622206174185 137.03639882810103 0 11 -4
4030 672 14 0 108.13430399042187 137.26652086999553 158.95133941025443 1 4 -11
4206 701 14 0 110.08798246674627 149.23959993912476 145.5478457027 -1 1 -8
4410 735 14 0 107.18692230958969 157.74838461164705 142.8770917772967 1 -2 -8
4029 672 6 0 109.2944469631212 135.71231259107776 155.58223858440024 1 4 -11
2914 486 14 0 109.36886005466597 145.20519434027665 157.61090137725023 0 0 -9
2668 445 14 0 108.0437497369456 143.7521558896782 137.2392231327404 -1 -3 5
2669 445 9 0 108.68396605445625 147.1792670050601 138.13638940328931 -1 -3 5
4027 672 14 0 103.50002578363255 136.41261468209825 153.56907415375338 1 4 -11
2916 486 14 0 106.06281777294537 143.86629737783178 151.7890886875701 0 0 -9
6250 0 41 0 98.8664178666631 135.29376939655157 138.05109612783028 0 -57 9
4643 774 9 0 107.56572691736555 135.79490745797872 139.6137560813877 0 1 -2
4642 774 14 0 104.98230209090994 138.18026360892742 140.46066009086314 0 1 -2
3518 587 9 0 100.86447809490092 144.4981979157565 136.45368280507228 0 11 -4
3522 587 14 0 98.63730957078842 137.29286187544503 146.39865758487687 0 11 -4
3519 587 6 0 98.03316445348416 143.18443263840243 138.80488302694505 0 11 -4
3520 587 14 0 95.76316660617516 140.44360832573676 140.2372277538996 0 11 -4
3521 587 9 0 96.35582911303779 138.26255095545548 143.22322625419972 0 11 -4
4273 713 14 0 101.86199840585621 152.7500765597073 147.07133319452072 0 -3 -3
4274 713 9 0 102.3632420692703 154.93771750513005 150.3627936504551 0 -3 -3
4276 713 14 0 108.8480386797534 158.36466130397764 150.25801701939065 0 -3 -3
4275 713 6 0 105.52147345069604 156.7776017964836 151.0582066565541 0 -3 -3
1402 234 14 0 111.09280051830875 142.2690580635742 144.708346446758 -2 -13 -2
6146 0 41 0 108.23692569486703 135.44436816348878 146.03869999434275 -2 38 25
4639 774 14 0 102.16023068659158 146.03821417353925 146.51575705095578 0 1 -2
1150 192 14 0 102.64308874487573 149.34199850203012 156.7264758815789 1 2 1
1151 192 9 0 105.70738318173619 149.93357469613218 154.6118609834667 1 2 1
1149 192 6 0 103.26766027718928 147.73514293434033 160.34194600737416 1 2 1
4640 774 9 0 104.13810355959562 145.38906689564183 143.1002728093001 0 1 -2
2915 486 9 0 107.90050404064388 142.94233321202802 154.8383213362723 0 0 -9
4641 774 6 0 104.91311524938605 141.53748981768365 142.07572807465579 0 1 -2
4028 672 9 0 106.85665649352566 136.5422634090585 152.3783168922791 1 4 -11
2670 445 14 0 108.61975896962487 150.74748511774567 137.42012979064805 -1 -3 5
4409 735 9 0 110.74204429340863 156.28361027087266 143.73684838761605 1 -2 -8
1152 192 14 0 108.6871576317275 151.34355756566939 152.55086213684984 1 2 1
5412 902 14 0 96.10947143788994 159.95716835189015 134.83039437366887 0 -11 5
2797 467 14 0 130.40752306820053 139.0754101536479 145.23718085901407 0 -1 -2
2801 467 9 0 123.86204155704688 136.50893274600332 150.68927777858443 0 -1 -2
6135 0 41 0 119.08692958359012 159.26431244961833 142.12678907722892 2 70 -1
2235 373 6 0 123.12134128580942 155.88467922401853 145.5933245442467 0 8 0
1914 319 14 0 124.22042398524577 138.24700105697733 158.39491840803507 1 8 -9
4627 772 14 0 114.61159412470333 159.95496842103788 159.56343923050133 -1 -7 11
2939 490 9 0 125.82672983777893 157.24042631754867 159.44844612792727 0 0 8
483 81 6 0 116.8933039433518 158.77027786229485 135.61479277890408 0 4 5
4675 780 14 0 129.39071925489475 151.078043948625 148.04276703731026 1 3 -2
5237 873 9 0 129.22695981344492 153.99850889785543 154.88030696629886 -1 4 9
1913 319 9 0 126.80766957478777 135.78444807149998 158.39258865515313 1 8 -9
4205 701 9 0 113.47726004245534 150.15613689866788 146.57359710314591 -1 1 -8
4203 701 6 0 118.15340874911 150.5175749638852 151.89435645452275 -1 1 -8
4970 829 9 0 123.0416729047147 145.63462112667884 143.3725523284449 0 -2 -5
4973 829 9 0 128.7355833430605 140.1598618084284 138.375914890318 0 -2 -5
4676 780 9 0 129.949657799496 149.62961424659747 144.45415589408194 1 3 -2
1399 234 14 0 117.2505377512802 145.62992971589574 139.31655679285765 -2 -13 -2
4680 780 14 0 117.66742537813295 152.6340265125666 140.55484862026992 1 3 -2
4644 774 14 0 111.31358257316626 136.41873110921188 139.62770973618024 0 1 -2
1401 234 6 0 113.81429844872565 141.2660332718644 142.2737381990654 -2 -13 -2
1404 234 14 0 114.962759446731 142.32782157066424 150.49457392773868 -2 -13 -2
1403 234 9 0 112.56638466909043 141.76061611954214 147.96102618567676 -2 -13 -2
4277 713 9 0 112.22655536569367 157.14840769892137 152.13580576588262 0 -3 -3
2234 373 9 0 120.8373921428128 153.91649960163176 148.02650403901973 0 8 0
1400 234 9 0 117.213194613163 141.89515201827746 140.04978215581139 -2 -13 -2
2798 467 9 0 129.64296895142925 135.32764538409344 145.310192943192 0 -1 -2
3841 641 14 0 122.41059715932053 145.62991272114343 154.04177791084504 0 5 -9
3842 641 9 0 125.2560462941063 144.58963213947274 151.70250167071018 0 5 -9
2940 490 14 0 123.4049132823979 157.2810966789142 156.7669987529751 0 0 8
4204 701 14 0 115.11966876485421 149.0687110648132 149.96471272390406 -1 1 -8
2236 373 14 0 126.17029354854962 158.2247211593778 145.35418127458428 0 8 0
2233 373 14 0 123.0783294513154 153.83386593436776 151.2850008837412 0 8 0
4677 780 6 0 127.08168185823227 149.70151813391084 142.2852925217912 1 3 -2
4678 780 14 0 125.05167220006301 151.53361941481825 139.67097602521457 1 3 -2
2802 467 14 0 120.65974664882478 138.14084282312325 151.96892664810557 0 -1 -2
4969 829 14 0 120.43608981563077 146.7691667931504 145.39509510005826 0 -2 -5
782 131 9 0 118.53694853957431 134.94782330763624 146.51105504091763 1 -1 11
781 131 14 0 114.7815684690114 135.01804293235176 145.34508872822687 1 -1 11
6107 0 41 0 124.00692040005463 137.83021483604824 144.0794270718827 4 0 5
4408 735 14 0 113.56731812810342 158.03629059811118 144.40924468422546 1 -2 -8
5235 873 6 0 127.06625136683867 149.80953440345354 159.1094944737743 -1 4 9
1992 332 14 0 115.51824774201825 138.47499641243212 156.42063536594162 1 5 8
3843 641 6 0 128.7824266407595 144.11005820840958 152.9643728894488 0 5 -9
1991 332 9 0 115.98573705041579 134.68337304681495 155.47790543810729 1 5 8
4278 713 14 0 115.91073418787045 157.00495747312738 152.43575869120593 0 -3 -3
4202 701 9 0 117.3909892538756 151.28909593074036 155.79335614788522 -1 1 -8
4972 829 14 0 124.70294423906732 140.11393290216552 138.1346074655103 0 -2 -5
4201 701 14 0 115.28613403302371 150.79185981271925 159.23643773352268 -1 1 -8
5238 873 14 0 129.74095009918636 156.77007786580788 152.8615252115526 -1 4 9
3844 641 14 0 129.36144893018562 142.31160646721938 156.4955382097396 0 5 -9
4974 829 14 0 131.0395739094545 142.76190107485985 139.41490682282696 0 -2 -5
4679 780 9 0 121.34308831047005 152.5768858867382 139.98869543392877 1 3 -2