LAMMPS data file via write_data, version 23 Jun 2022, timestep = 70001000

8768 atoms
40 atom types
8704 bonds
1 bond types

48.5 620 xlo xhi
246.8624223437446 353.13757765625417 ylo yhi
246.8624223437446 353.13757765625417 zlo zhi

Masses

1 131.199997
2 57.049999
3 128.199997
4 101.099998
5 156.199997
6 71.08000199999999
7 115.099998
8 129.100006
9 163.199997
10 99.06999999999999
11 113.199997
12 128.100006
13 186.199997
14 147.199997
15 87.08000199999999
16 137.100006
17 114.099998
18 97.120003
19 103.099998
20 113.199997
21 131.199997
22 57.049999
23 128.199997
24 101.099998
25 156.199997
26 71.08000199999999
27 115.099998
28 129.100006
29 163.199997
30 99.06999999999999
31 113.199997
32 128.100006
33 186.199997
34 147.199997
35 87.08000199999999
36 137.100006
37 114.099998
38 97.120003
39 103.099998
40 113.199997

Atoms # full

5876 43 9 0 202.1707435570673 260.46174620319914 258.87072331918864 0 8 3
5879 43 15 0 195.37764432393715 262.77062161422253 263.56026140408727 0 8 3
5878 43 2 0 197.41711595335286 265.03525396436794 261.24450089784 0 8 3
5880 43 15 0 192.55651272640725 264.79761405156506 265.3497835120453 0 8 3
5877 43 2 0 200.1948367463474 263.14817930047985 260.2720433087461 0 8 3
5767 43 5 0.75 192.1937489765846 250.1546376124555 250.7556807383066 0 8 2
5768 43 15 0 194.89540487026807 251.64046051206589 252.71922149571748 0 8 2
5853 43 2 0 200.893918174228 254.0136235703273 256.4786498822275 0 8 3
5856 43 15 0 197.62956304366105 258.9035685390981 247.05363024424776 0 8 3
5883 43 15 0 200.736835340804 266.6866908760288 265.34316326411334 0 8 3
5769 43 2 0 198.58641740199633 251.22630432775293 251.89386412302056 0 8 2
5770 43 15 0 199.22636779974755 250.66777904930154 248.14195156742235 0 8 2
5854 43 2 0 198.71695882291115 256.64519361386664 254.0546059708647 0 8 3
5844 43 14 0 204.08732153992256 254.37665142586712 249.63760339505117 0 8 3
5855 43 5 0.75 197.4406792863378 258.03630186473873 250.7744398625424 0 8 3
5872 43 17 0 203.8904462320687 260.54466099813527 247.00671185408473 0 8 3
5875 43 2 0 204.48676892060917 262.9569280033778 256.57895458761715 0 8 3
5874 43 2 0 205.97503656889543 261.7225783510201 253.09329003015586 0 8 3
8433 32 15 0 214.10548310704542 252.94763495856625 261.480483068106 0 1 -5
8432 32 2 0 210.70246644864022 251.83683434845864 262.6047263953773 0 1 -5
8434 32 9 0 217.89720317832322 254.18941181510218 261.18041280570685 0 1 -5
8437 32 14 0 213.80567704987777 260.8572762453413 254.2076746799066 0 1 -5
8438 32 2 0 213.9470140987661 264.47087875384267 255.03999301525522 0 1 -5
8435 32 17 0 216.564749196852 257.34858419762713 259.6395508117534 0 1 -5
8436 32 7 -0.75 216.4802212144244 259.3099146845816 256.35168928956244 0 1 -5
5851 43 17 0 208.15498624461836 252.635298587036 258.18804595906016 0 8 3
5848 43 3 0.75 215.71318676710737 252.9806979745003 253.05220446311264 0 8 3
8431 32 2 0 207.89793318230596 250.12901185799953 264.11774996417773 0 1 -5
5852 43 14 0 204.58061502986993 253.4642107909455 256.8749277903955 0 8 3
8439 32 17 0 217.13121819526714 265.1968043144323 257.42082311017145 0 1 -5
5847 43 1 0 213.35004875902425 250.91617162688647 250.8635754469198 0 8 3
8447 32 14 0 218.56411229170052 264.6302572003309 250.2381014926861 0 1 -5
5775 43 2 0 204.6351228553305 246.97994619572623 251.60566561397943 0 8 2
5873 43 12 0 206.5305959121953 260.7563527409778 249.46577620785717 0 8 3
5888 43 2 0 210.83886717239037 265.76173946193796 258.2296240271431 0 8 3
5849 43 2 0 213.99127930116754 252.2274258594629 256.45134011357254 0 8 3
8446 32 17 0 216.3366410754061 262.0894845149441 248.46195679757832 0 1 -5
5846 43 18 0 210.09853625937848 252.30307534324308 251.49169220515088 0 8 3
5850 43 2 0 211.18040809728123 250.1211711582574 257.91308889679027 0 8 3
8430 32 2 0 209.97417767926393 247.8641648110101 265.9668149808634 0 1 -5
5845 43 2 0 207.57377232740467 255.42281587669632 251.21718614288446 0 8 3
8448 32 2 0 220.72537507304403 264.6014619761213 246.92121344934716 0 1 -5
8445 32 15 0 212.7608969905447 261.66183602744997 247.73449539826146 0 1 -5
8429 32 2 0 213.62515967273148 247.82957598873014 265.0666434376853 0 1 -5
8483 32 15 0 239.91189460203557 257.48478909061737 256.603622863015 0 1 -5
7810 28 2 0 227.71201974525906 256.4783200637772 272.0600170824933 0 1 -5
8480 32 2 0 241.90954017755166 255.81647408001822 263.8985555357149 0 1 -5
8482 32 15 0 242.25745579846424 258.36884395285637 259.11964708218255 0 1 -5
8481 32 2 0 239.8209383686695 255.76832138782774 260.7894416546017 0 1 -5
8467 32 2 0 242.1662381611599 252.734553953246 250.76261328022136 0 1 -5
8479 32 9 0 242.5899225430485 256.9626775638801 267.50249238600156 0 1 -5
8466 32 2 0 240.8526405450429 250.19902085749922 248.10867282889262 0 1 -5
7813 28 6 0 233.59972548225716 258.3406575507878 264.3327063259783 0 1 -5
8488 32 9 0 239.8064004903228 260.14037078169594 247.2182790510315 0 1 -5
8484 32 15 0 241.96031080844762 258.9886140066792 253.81958127255365 0 1 -5
8485 32 15 0 243.13403309447892 262.0392480365724 255.2958450860495 0 1 -5
8455 32 14 0 235.11243948014285 266.04986090955856 246.94227664287794 0 1 -5
4845 51 2 0 237.04233119845742 247.13923070496304 257.5166051592631 1 -1 -4
8486 32 15 0 242.45248173760743 263.61652801293064 251.9621301057493 0 1 -5
8487 32 15 0 243.12518050289765 261.7324577683168 248.6732824858711 0 1 -5
7816 28 15 0 235.30164684531007 264.7663678878737 256.59534662530587 0 1 -5
7814 28 15 0 234.9436363580656 259.2173812808795 260.829345737479 0 1 -5
7815 28 6 0 233.25774380278153 261.6459808690506 258.2585338207935 0 1 -5
7811 28 15 0 231.2146590324398 257.4644895118318 271.4104637086084 0 1 -5
7812 28 1 0 232.70989657545002 258.7503262368593 268.0728428604716 0 1 -5
8451 32 3 0.75 226.8653286040127 260.9203039169437 247.15193345282998 0 1 -5
8454 32 17 0 233.9095055780032 265.5972723193792 250.68954091831768 0 1 -5
8425 32 2 0 224.8593993829096 248.09882613778976 260.0620377903063 0 1 -5
4842 51 2 0 233.49305707028734 248.07446643679782 249.85997661663785 1 -1 -4
4846 51 2 0 238.4761430767581 248.53503309827624 260.26011974375047 1 -1 -4
8452 32 2 0 227.83876416905446 261.2328145397012 250.65502203607275 0 1 -5
8453 32 2 0 230.70700453339484 263.9366569344012 250.11692460296172 0 1 -5
4843 51 15 0 234.06286743706374 247.00388522788631 253.18727217447298 1 -1 -4
8489 32 2 0 240.85664373504716 257.1590384649719 248.6399865805931 0 1 -5
4844 51 5 0.75 235.05799448366471 250.0562078939178 255.5055483003985 1 -1 -4
7874 28 2 0 261.09774644083546 258.7438890712385 268.5258910582527 0 2 -5
3014 22 14 0 257.19874585707936 266.79638908584013 256.9891578874674 0 5 4
4855 51 2 0 252.23577244932144 249.93973798495583 251.70093444785658 1 -1 -4
8472 32 3 0.75 254.1300994297495 249.61387232184705 263.0471252566456 0 1 -5
8468 32 12 0 243.34620522967234 251.8667567610159 254.05811972109035 0 1 -5
8469 32 9 0 246.48500322588887 252.0882111030547 256.5963178153021 0 1 -5
8470 32 14 0 248.65517114546142 251.52184133248807 259.5650174001037 0 1 -5
8471 32 6 0 250.80958118326893 249.33212751151828 261.4012210546274 0 1 -5
4854 51 7 -0.75 253.7963245837079 247.88605531871542 254.74858648419396 1 -1 -4
8493 32 5 0.75 254.4427236967411 256.2742694184489 253.64545710728203 0 1 -5
8492 32 5 0.75 250.81511049699685 257.2443973688165 254.30141389890846 0 1 -5
7876 28 7 -0.75 260.86568158452064 262.1002856925644 272.3251067081745 0 2 -5
7875 28 17 0 258.4174624592645 259.5427979365622 271.0350116321507 0 2 -5
8494 32 14 0 258.18165536383907 256.0793299686485 253.3832674417974 0 1 -5
1468 41 14 0 255.36884031400638 266.256297624378 266.8841473727347 0 -6 6
1466 41 2 0 259.5388954313742 266.82376809491046 271.0328423707492 0 -6 7
6962 36 9 0 261.7361932713719 250.70902644521385 269.6979452147835 0 -4 0
7873 28 14 0 262.3013549687553 259.8033527705396 265.1064471688525 0 2 -5
8477 32 2 0 245.88589898768208 251.8434275882776 266.22098293979224 0 1 -5
8478 32 2 0 244.56771158450377 254.21600282217224 268.98728402205256 0 1 -5
4856 51 9 0 249.39549925219922 248.8983783064943 249.576162816188 1 -1 -4
8490 32 15 0 244.84836842562513 256.4075799712651 250.14621504928806 0 1 -5
8491 32 2 0 248.4484608728701 256.3055628466247 251.49866917008788 0 1 -5
8476 32 12 0 244.65693710503916 248.58289442461324 264.3717450831145 0 1 -5
5881 43 15 0 193.74318354501503 267.40644870425683 267.35482134904044 0 8 3
5884 43 15 0 203.39738531193342 269.50016593556194 265.00403389952623 0 8 3
5885 43 9 0 203.76461477887614 269.5703915164327 261.0314329575762 0 8 3
5882 43 15 0 197.3922428609719 267.25395726358926 266.5380409943866 0 8 3
8440 32 9 0 218.3286751949349 268.5236750342814 256.72225999051363 0 1 -5
5891 43 14 0 211.8218283860798 270.30920145140766 268.6698336984166 0 8 3
5886 43 2 0 205.46519655213078 268.10431512143396 258.30602502088095 0 8 3
5887 43 15 0 208.3251738632056 267.40495616320305 255.93204902298086 0 8 3
5889 43 5 0.75 211.4196031503489 267.7584280625426 261.6283232712433 0 8 3
5890 43 5 0.75 212.51863648835536 268.6582871561751 265.07343382822893 0 8 3
8442 32 17 0 212.07349744252824 268.9403878785151 252.46734298185862 0 1 -5
8441 32 17 0 215.63488703498098 269.50037170269627 253.8997873587368 0 1 -5
7387 24 15 0 205.50843977627036 276.5657554162227 259.2843027452171 0 -3 -6
7386 24 15 0 208.50771026190367 274.8183141652011 257.67013419965764 0 -3 -6
7385 24 2 0 210.3644876533641 277.1759290442351 255.33803053463896 0 -3 -6
7384 24 2 0 210.84546235827372 279.8313254883722 252.72971873399206 0 -3 -6
7377 24 18 0 221.08734965837257 279.2977355894033 257.7394192695936 0 -3 -6
7389 24 15 0 208.76518429621888 281.1421551712791 262.4778288318166 0 -3 -6
7388 24 15 0 205.34391026787327 279.2905387108797 261.9442533283356 0 -3 -6
7383 24 9 0 213.98209253383743 282.35361782272776 253.4856981871527 0 -3 -6
7376 24 3 0.75 223.7476104107577 276.8316295081124 258.32713634355565 0 -3 -6
7378 24 5 0.75 219.48796845866505 282.79490347386457 258.7552676668207 0 -3 -6
7382 24 2 0 217.25309401893304 283.9803766963834 252.1820095865035 0 -3 -6
7379 24 17 0 222.62350001612197 285.08570406659453 258.5103328290276 0 -3 -6
7372 24 12 0 221.14103918091186 279.4433881086727 266.5019072262318 0 -3 -6
7371 24 2 0 219.03866204858835 281.22145449722376 269.5013082441889 0 -3 -6
7370 24 2 0 216.35677842909405 281.39054352956185 272.62952199828703 0 -3 -6
8443 32 12 0 211.4383884199794 267.9368529752663 248.6660022100494 0 1 -5
7390 24 15 0 211.70099289955854 279.02702956378926 262.169527660685 0 -3 -6
7397 24 5 0.75 222.80475955157527 286.3171523282193 268.96475283323997 0 -3 -6
7391 24 15 0 213.8530196064417 281.45419603149725 264.131028305007 0 -3 -6
7392 24 9 0 213.44760000792132 285.0018891796101 263.6046773915036 0 -3 -6
7396 24 5 0.75 220.8923975706536 286.88648522714806 265.30266505065043 0 -3 -6
7381 24 2 0 221.0083498212547 284.97794927511984 252.2930119890154 0 -3 -6
7380 24 12 0 221.97678210181968 287.21029186559105 255.20855802572325 0 -3 -6
7398 24 14 0 224.17653199718285 283.5019416641262 271.1295461650215 0 -3 -6
7375 24 6 0 227.08451603878467 278.4837387273564 259.07407443853856 0 -3 -6
7374 24 14 0 227.20415065225265 280.7525214092831 262.10854154793697 0 -3 -6
7373 24 9 0 223.84954946669728 280.35451119149485 264.256010951573 0 -3 -6
7821 28 2 0 239.79784223912114 276.83352111653437 251.95497922317082 0 1 -5
7820 28 5 0.75 236.30849829051593 275.64633201595757 250.23629554009915 0 1 -5
7817 28 15 0 237.08263345516153 268.0966982402447 257.16014368842457 0 1 -5
7818 28 15 0 236.45262976175837 271.2665877287391 255.48640705752294 0 1 -5
7819 28 12 0 235.12082478300857 272.32998558021285 252.1162587721759 0 1 -5
7822 28 5 0.75 242.81116699337755 276.8595894873387 250.21286288452168 0 1 -5
4659 35 2 0 243.07051441041457 273.0662474908984 261.3063085354726 0 1 3
4665 35 15 0 259.2041357500755 281.48235273150897 261.0129189522154 0 1 2
7824 28 2 0 246.52492105507642 279.9293763664794 253.1131787473065 0 1 -5
7823 28 15 0 246.32221049160785 277.8138848845698 249.69986401203522 0 1 -5
4663 35 15 0 254.61648007861086 275.4134776663598 259.9903495860151 0 1 2
7825 28 15 0 249.75749298870392 281.7668235457566 251.74565415658728 0 1 -5
1471 41 5 0.75 252.63061817380972 273.12070334928103 271.2129296963167 0 -6 6
1469 41 2 0 251.992477839392 268.41580211971404 266.89611967675427 0 -6 6
1470 41 2 0 251.25731386178143 269.618011259134 270.54621614269786 0 -6 6
1467 41 17 0 258.53677434409576 267.4094295307347 267.2024401463492 0 -6 7
4662 35 6 0 252.79781312987 272.38521070046806 258.4991174739239 0 1 3
4661 35 1 0 249.17010131886008 271.4182356684942 258.44694141191263 0 1 3
4660 35 15 0 246.28701458609007 273.6046809722971 259.13306892345753 0 1 3
4667 35 15 0 258.40079991386204 287.3159547771779 259.42087218615603 0 1 2
7826 28 2 0 252.98086486159372 283.39910995370025 250.2867367670615 0 1 -5
7827 28 17 0 253.87021829414633 286.2534263162357 252.7591468195795 0 1 -5
3013 22 5 0.75 260.8397734421997 268.73977176585674 257.5232165052768 0 5 5
4666 35 15 0 257.4368462116494 283.79248315729797 258.7145624380724 0 1 2
4664 35 6 0 257.644002101605 277.8408821404504 260.4489631933843 0 1 2
3010 22 15 0 261.95530868941796 273.2606724545218 249.44387992064412 0 5 5
962 53 1 0 193.62352353780093 298.441721112224 254.01545878351163 0 6 1
961 53 15 0 196.4976617333178 299.94302185547025 252.12323087226306 0 6 1
965 53 6 0 201.32103717088106 300.2393632548005 258.17052660902885 0 6 1
966 53 15 0 203.91994367195255 299.1508087810486 255.40535790706872 0 6 1
964 53 15 0 198.02448123756255 298.5815797915481 257.49540086476264 0 6 1
963 53 6 0 194.09062136542772 298.87459922022765 257.6232770954845 0 6 1
960 53 2 0 198.8155235675998 299.10793215838055 249.10796123744035 0 6 1
7359 24 14 0 206.906090837758 288.21328321676833 270.1911187429258 0 -3 -6
967 53 15 0 205.86772257005353 302.0525094960622 257.03806752833174 0 6 1
7356 24 2 0 209.96137798890794 294.42675250428346 267.7400356623659 0 -3 -6
7357 24 2 0 208.91809576086854 292.350077424535 264.75643965349417 0 -3 -6
7358 24 17 0 207.21447363790273 290.2010954429381 267.00436157345456 0 -3 -6
7393 24 2 0 214.4632385381154 288.3738570678511 263.21687484992026 0 -3 -6
7355 24 3 0.75 211.81709905298015 297.5839824050783 267.28669758233207 0 -3 -6
972 53 5 0.75 223.0493468362304 305.20786623371015 258.26127892451973 0 6 1
7353 24 18 0 219.23402857128588 300.14220509863253 266.7535432411263 0 -3 -6
7395 24 2 0 219.43261204962158 289.58067076640697 263.0999050425311 0 -3 -6
7352 24 2 0 219.9154235734663 303.36071966098154 264.51094465411734 0 -3 -6
7394 24 15 0 216.97088838722468 288.686345482148 260.2198262651997 0 -3 -6
7354 24 1 0 215.7426820232697 298.4509230204826 267.1216586558079 0 -3 -6
7336 24 2 0 221.75000474224404 300.2414998509643 254.71846252979466 0 -3 -6
7337 24 15 0 219.83940511982644 300.1416782556349 251.63519947624286 0 -3 -6
7338 24 9 0 218.97751743615234 303.75640896658746 251.20745355293639 0 -3 -6
7339 24 17 0 215.60518139752568 305.281007644406 251.12361998897205 0 -3 -6
7351 24 14 0 220.37783135626657 307.0905078829847 265.6215775364064 0 -3 -6
8525 48 7 -0.75 207.52844601180556 305.76614240207334 273.0175669383106 0 1 5
971 53 2 0 219.17192552440915 306.2197461028923 258.9971411033031 0 6 1
968 53 15 0 209.5789359111035 301.1259157447882 257.85555814553754 0 6 1
970 53 5 0.75 216.0200056171884 303.8500236947432 258.1214730860721 0 6 1
8529 48 5 0.75 213.05653996331824 293.22371623389546 273.2165957805893 0 1 6
8531 48 2 0 219.07310726469453 289.1750312954533 271.62024804833123 0 1 6
8530 48 2 0 215.8045225319713 291.11649821754736 272.09706045890727 0 1 6
969 53 12 0 212.68823171482487 302.6183092632257 259.6188866425486 0 6 1
6539 63 2 0 242.74831313408052 298.87136341767666 272.8327341351275 0 2 3
7335 24 2 0 225.1348839843678 300.49637375784994 256.93570086440263 0 -3 -6
7334 24 2 0 225.7847893686933 296.97181473622686 258.5175790143157 0 -3 -6
973 53 15 0 224.84882633540445 306.08195953714943 255.00653237182468 0 6 1
7333 24 2 0 227.72189869435192 294.7851153674784 260.94427388424106 0 -3 -6
7332 24 14 0 226.7081484829291 292.7824179746364 264.0639983928043 0 -3 -6
7331 24 17 0 226.08949325397163 295.6857870479087 266.414899781942 0 -3 -6
7330 24 15 0 225.22706676620737 295.05227929003536 270.0635571183928 0 -3 -6
7329 24 2 0 224.7706415721615 291.2187085955366 270.32738900820397 0 -3 -6
7328 24 7 -0.75 228.3684962939361 290.0851335353512 271.87798845286903 0 -3 -6
4669 35 5 0.75 261.51131756039746 291.4183844986322 263.91094801853023 0 1 2
2260 2 2 0 245.66317181412887 292.6217829759261 250.99592804060546 0 2 2
4673 35 2 0 259.97391508280407 298.8159901462893 272.2735643774132 0 1 3
7829 28 2 0 255.7741199340013 290.5253158289989 256.4794055125323 0 1 -5
2277 2 17 0 260.0943558690986 289.5040525128625 248.47109250163294 0 2 3
7830 28 2 0 256.3362869246423 294.0542596093529 255.430636638691 0 1 -5
7828 28 14 0 252.96067069753147 289.3072437423083 254.84358407591344 0 1 -5
2278 2 12 0 259.6782092803987 292.05966963794145 251.33698905516727 0 2 3
7831 28 2 0 255.44311254543726 297.33094279006724 256.44878080147186 0 1 -5
7832 28 5 0.75 258.3734131383573 299.1933424523791 255.64757242540747 0 1 -5
7833 28 2 0 259.561831516431 301.98241531948656 257.99585434118194 0 1 -5
7834 28 2 0 261.40067297452464 305.2279160031065 258.51189689564546 0 1 -5
2279 2 15 0 258.1479231936269 295.328448741229 250.2733351174658 0 2 3
2280 2 15 0 255.91509949748513 298.3139106764237 249.6588024704815 0 2 3
2262 2 17 0 251.67114901337894 293.0580648934244 248.41211960770258 0 2 2
2286 2 3 0.75 262.2598141457733 303.58131274312905 250.56448712197093 0 2 3
7842 28 14 0 260.2991579783475 307.5102994963578 265.05199921425304 0 1 -5
2261 2 15 0 249.3668686729783 293.5463882980931 251.3320970236467 0 2 2
2259 2 7 -0.75 246.13687694859777 291.8410907678971 247.34345696716798 0 2 2
4668 35 12 0 258.88305523266405 289.5715106799193 262.1638238817941 0 1 2
2285 2 1 0 262.2650511734803 305.6856484699966 247.46594134488743 0 2 3
2281 2 17 0 254.2405816093676 300.91301293332947 247.18219159812483 0 2 3
824 37 15 0 196.47485474249223 266.1133457326787 292.5201791325104 0 -4 3
846 37 2 0 215.5534987185298 247.395411225819 299.3220316760163 0 -4 2
827 37 15 0 204.3614593265514 263.93206781273864 292.83606841326593 0 -4 2
830 37 15 0 211.01139918081725 256.5609100198117 291.9667152410829 0 -4 2
828 37 6 0 206.58842503230807 260.5840447583265 293.02989857110543 0 -4 2
831 37 15 0 213.02187787546984 253.14561849778218 291.87216419977614 0 -4 2
829 37 15 0 210.27801000904614 259.6779625882107 294.18039476658737 0 -4 2
832 37 12 0 212.68758679348306 249.54813898309123 291.67536946345615 0 -4 2
833 37 5 0.75 209.61806900281837 248.53590625836136 294.1309332247682 0 -4 2
834 37 2 0 207.85632653607897 251.9652276821001 294.069477222199 0 -4 2
8556 48 17 0 219.57001297178678 264.6758009935097 293.5706978130936 0 1 5
8557 48 2 0 219.957760588765 261.279143914628 294.6000581344462 0 1 5
8558 48 14 0 218.2672891074938 258.66134592343053 296.4252426090152 0 1 5
8555 48 9 0 221.2060952899946 266.25606618521863 290.3881057756974 0 1 5
847 37 2 0 214.69528103523606 250.61008263538918 297.1898347841922 0 -4 2
8559 48 2 0 216.6851237090504 261.85465594879514 298.742191258187 0 1 5
8548 48 9 0 223.68397377600513 264.93441575542676 276.7516567383458 0 1 5
835 37 5 0.75 204.87253297733443 254.20668549145583 293.98850560204096 0 -4 2
836 37 15 0 204.36468638567754 251.8386584395011 297.1451236789734 0 -4 2
7941 28 2 0 239.99772298220623 257.6430902759837 298.7419458406206 0 2 -5
1435 41 2 0 227.65855757212577 254.31737204984307 298.6838083474676 0 -6 6
1492 41 9 0 230.27460441969092 261.93793071480593 284.75127450232793 0 -6 6
1493 41 2 0 227.20160215792876 263.7472342555785 285.64646276437713 0 -6 6
1441 41 14 0 236.79746377522176 247.88947976302958 291.02406627354543 0 -6 5
1505 41 5 0.75 224.84555633861663 264.59050235537825 297.41386588686765 0 -6 6
1491 41 2 0 232.58602805588012 261.9814743935409 281.79137983059337 0 -6 6
1487 41 5 0.75 228.13904606925533 259.92559649600514 277.2347091804156 0 -6 6
1486 41 18 0 230.34404575350393 256.8501230416064 278.6821652949553 0 -6 6
1482 41 9 0 242.13661415187684 256.5967430315957 274.61681296378265 0 -6 6
1483 41 14 0 238.2708992634098 256.46132468482415 274.15055861717445 0 -6 5
1485 41 3 0.75 232.99413137023438 254.1662055774307 279.0641274787427 0 -6 5
1484 41 6 0 235.3403100386018 255.0237898851643 276.02161020919124 0 -6 5
1453 41 9 0 236.71480837220784 253.07007078700576 284.73224326792194 0 -6 6
1452 41 17 0 236.4189762563097 255.9962758263128 286.7387004066268 0 -6 6
1451 41 2 0 237.1485502181321 254.1244905765394 290.33567153339516 0 -6 6
1450 41 14 0 240.47977336410844 255.4941441522351 291.4694030609518 0 -6 6
1442 41 2 0 234.75680130681064 247.1158812661869 294.22964850245546 0 -6 6
1438 41 2 0 229.42914707385327 252.6814800312942 290.8675074683457 0 -6 6
1439 41 15 0 230.43168592082117 249.1448777954603 289.6572922438864 0 -6 6
1502 41 2 0 229.43642518811473 261.3041508811112 294.20861764344863 0 -6 7
1440 41 17 0 234.45506921709014 250.16135282053915 289.23657861540744 0 -6 5
1504 41 2 0 224.6053915836367 262.9871409587156 294.2937325773686 0 -6 6
1454 41 17 0 239.99472870510772 251.13577928930377 284.85246853007675 0 -6 6
1455 41 17 0 242.65183746967617 250.78315225805667 287.58313064316894 0 -6 6
1444 41 2 0 237.53687927350734 248.18806329181936 299.50649880681084 0 -6 6
2628 50 2 0 243.10454535996402 265.08664381925234 292.0648314481144 0 8 -6
1503 41 15 0 226.6180095435186 261.89183175996067 291.41721834020893 0 -6 6
1500 41 15 0 234.38143803185915 262.816186301757 292.9855408631767 0 -6 6
1490 41 2 0 232.01849567686102 264.8587837468624 279.6586774391902 0 -6 6
1488 41 17 0 230.6412018994118 261.6196875146794 274.8898813826011 0 -6 6
1501 41 9 0 232.05411556012277 260.25621449082445 291.55447706186226 0 -6 7
1489 41 12 0 233.35186323488594 263.6057515997864 276.2170873504039 0 -6 6
8547 48 2 0 226.87546460900109 266.81255892939265 277.1242815297137 0 1 5
1499 41 15 0 233.54558031969623 264.7756310583017 296.21708073430943 0 -6 6
7939 28 15 0 235.22810908748667 258.0373204400196 298.94323029600235 0 2 -5
1437 41 7 -0.75 230.76102255164167 253.8450501808699 294.2856791996368 0 -6 6
1436 41 17 0 227.55957016037928 255.73257391772458 295.3375015879833 0 -6 6
7940 28 9 0 237.79508755031142 260.69248265316673 299.4769477889012 0 2 -5
7895 28 12 0 256.9263962675495 252.95058409752605 287.4109729280281 0 2 -5
2635 50 17 0 256.94162696868426 259.4278064940981 297.45373129342084 0 8 -6
7917 28 2 0 258.11213503699804 253.16229856903493 299.3804248369016 0 2 -6
1464 41 3 0.75 255.65279814613885 264.2251056322984 274.1164102071181 0 -6 6
1448 41 17 0 244.81472670402093 251.86471845831633 294.61222886388117 0 -6 7
7877 28 2 0 260.46516246189424 260.4714646938298 275.646228940241 0 2 -5
7901 28 18 0 248.2687432812669 250.31167402446357 277.57854069365857 0 2 -5
7916 28 2 0 255.53614456712523 250.00598092721583 299.37897941991247 0 2 -6
7896 28 15 0 255.51892151475428 249.11549209294526 286.5102627932713 0 2 -5
5230 39 2 0 260.6231128438079 263.10877049009304 293.21485840106004 0 1 -1
7900 28 2 0 251.98287397484083 249.66030642164813 276.3688305923063 0 2 -5
2634 50 7 -0.75 253.8060565289151 257.27298255433044 296.0072229340487 0 8 -6
1447 41 9 0 244.82927253716295 249.51485566304854 298.0894637205787 0 -6 7
3194 54 2 0 262.4336649543154 251.07877970910982 294.09480145490016 0 4 2
1477 41 2 0 249.5443556896967 266.1557325765119 275.4536602213989 0 -6 6
7891 28 17 0 261.24678219890353 259.54067567943537 285.04537521912533 0 2 -5
1481 41 12 0 245.03553472652212 254.99934411937025 276.40607148551715 0 -6 6
3192 54 2 0 261.8798316752671 252.39967377091955 288.9826178643313 0 4 2
1478 41 2 0 248.89680725546856 262.489564700355 275.5734306693363 0 -6 6
1480 41 2 0 247.72635109703455 255.9090359203496 278.80379342742634 0 -6 6
1479 41 2 0 248.47286139974364 259.24730724841777 277.4355750478203 0 -6 6
7879 28 17 0 261.7029863806308 264.20990509908063 279.4736019686922 0 2 -5
7878 28 15 0 260.15560582816397 260.747495761251 279.393632711609 0 2 -5
2631 50 2 0 248.5930707716915 257.80546819323195 293.6048953811807 0 8 -6
5233 39 14 0 254.08665598106646 266.38918367934974 289.04312020088275 0 1 -1
7893 28 17 0 258.101658497923 259.7669942904224 290.200087211286 0 2 -5
7894 28 17 0 257.78788365546046 255.6541689242453 290.1714693079408 0 2 -5
1456 41 12 0 245.34874354498447 253.02534585771312 285.4099983745199 0 -6 7
2636 50 14 0 260.3669726548867 259.22344994153156 299.24962191220294 0 8 -6
1458 41 15 0 245.375890909034 260.28442685619217 284.9155548954197 0 -6 7
1457 41 15 0 244.0996607147129 256.67848827618326 285.6364052945066 0 -6 7
1459 41 17 0 248.99453840709862 259.1124731575997 283.58148639235725 0 -6 7
7892 28 9 0 259.1150571387154 261.6808808633041 286.9987083581449 0 2 -5
5232 39 2 0 254.52375155447822 263.2049016849843 290.7861463638755 0 1 -1
1460 41 14 0 251.97713625588827 258.68658244395573 286.08868608280886 0 -6 7
2627 50 2 0 245.31939182816612 266.3953908851778 289.50770213803025 0 8 -6
5231 39 2 0 256.84666197932364 262.9661011907351 293.770900033509 0 1 -1
2629 50 2 0 245.44576751139374 262.49308951405504 293.1121145605429 0 8 -6
2630 50 14 0 247.3776986626286 260.72616392407514 295.7107979019729 0 8 -6
7897 28 15 0 252.65281274513293 247.69411872515798 284.4828842373152 0 2 -5
2633 50 17 0 252.75280166657276 254.62012314220053 293.1745325180107 0 8 -6
1461 41 2 0 253.8034558648367 261.6288281674085 284.5644700537886 0 -6 7
2626 50 5 0.75 247.4662596520795 266.2182830249123 286.33037545215194 0 8 -6
1463 41 1 0 255.1991554728811 263.07486452848735 277.6884023429562 0 -6 6
2632 50 2 0 249.99832851843578 255.86796548604448 290.726187278094 0 8 -6
1462 41 18 0 254.67158326068133 261.2301311240011 281.0102875083325 0 -6 6
3193 54 5 0.75 261.46392006746834 249.2104537092488 291.2007885316232 0 4 2
1449 41 7 -0.75 244.2303317888742 255.32707320094485 292.48273507805334 0 -6 7
7915 28 15 0 253.26895692123472 247.2005647859656 298.414578853736 0 2 -6
823 37 2 0 193.31005322548896 267.87374063444946 292.19842999789313 0 -4 3
825 37 1 0 199.59088916964316 267.4062053465557 294.0244032147751 0 -4 2
826 37 6 0 202.82598846643057 267.2853263049026 292.00770736654596 0 -4 2
7360 24 2 0 207.27496172577492 286.52977839145586 273.6544987938027 0 -3 -6
8554 48 2 0 223.57219785264783 268.19434446381786 288.073845978531 0 1 5
8553 48 7 -0.75 223.0948437174615 270.7695530485921 285.2936991149799 0 1 5
8549 48 2 0 221.55049772450815 268.51959362481716 277.21237250400435 0 1 5
8550 48 2 0 220.21021669564652 271.94655086573334 277.87234902097475 0 1 5
8552 48 2 0 223.42642031413382 269.0872176112944 281.8159204747504 0 1 5
8551 48 15 0 219.8039593944001 270.42604286162157 281.1947941404615 0 1 5
7369 24 2 0 219.16082058089938 282.8290593955556 274.6592331732337 0 -3 -6
7368 24 2 0 221.12013448782426 279.93258761284125 275.749876674609 0 -3 -6
7365 24 2 0 218.70792442313743 283.56764960958424 284.84766681477674 0 -3 -6
7366 24 2 0 219.71519547848249 281.1068552872013 282.27459597457073 0 -3 -6
7367 24 15 0 218.58083036913447 279.4072765386758 278.98999720865993 0 -3 -6
7361 24 2 0 210.79968760929077 286.8195906150582 275.1897401234801 0 -3 -6
7362 24 5 0.75 212.37709710270545 285.6022686562047 278.5335111480064 0 -3 -6
7364 24 15 0 217.68966813498577 286.2823912394343 282.57075049576406 0 -3 -6
7322 24 9 0 241.56220053112736 284.13903360026023 274.2341500160987 0 -3 -6
7323 24 17 0 237.99371587239017 282.9574121836692 273.9988918969629 0 -3 -6
7324 24 2 0 236.27687743091684 285.25430810867266 276.47097300354056 0 -3 -6
7327 24 17 0 229.51891807337944 286.5593546251547 273.3806000571278 0 -3 -6
1494 41 2 0 227.41939971961526 267.60979428260276 285.0361913916027 0 -6 6
2937 22 2 0 231.7938005648461 282.3725248559263 299.31283657893925 0 5 5
8546 48 2 0 226.86261258471896 269.871697565872 275.8490815350786 0 1 5
8545 48 2 0 227.32033015930614 273.1505362303297 278.00700155064374 0 1 5
8544 48 2 0 229.84638545834275 275.93727621569224 277.87180835861824 0 1 5
1496 41 15 0 230.912126823819 271.78196610562134 289.9890772070859 0 -6 6
8536 48 5 0.75 228.34444126217633 284.71212964469026 281.55725396764785 0 1 5
7321 24 2 0 241.8215136615661 286.48525325444683 277.14430004175426 0 -3 -6
1498 41 15 0 230.7251391270583 267.2807981020671 295.38375138114156 0 -6 7
1495 41 15 0 229.5133781503724 270.13349133331184 287.4802184704303 0 -6 5
2615 50 2 0 242.86506216443303 271.5339312437164 296.78926552437895 0 8 -6
2941 22 14 0 242.29776348827951 281.84771826394564 297.0607503760918 0 5 4
2616 50 5 0.75 239.9286308797223 273.5864749530692 295.45068530168504 0 8 -6
8538 48 2 0 235.7715625157228 285.34071498154964 281.4255800169009 0 1 5
8537 48 2 0 232.0425768994281 285.25662627060746 280.85030990343466 0 1 5
8543 48 5 0.75 231.16851168532844 277.5198423533677 281.0545478962984 0 1 5
8541 48 2 0 234.20266903372053 279.3072500840634 287.077756169717 0 1 5
8542 48 15 0 232.54325566576 276.93427035559694 284.6091418598618 0 1 5
8540 48 2 0 235.37426612667002 282.3406518336538 285.09394715862516 0 1 5
8539 48 14 0 238.5106058355304 283.58530869361033 283.35563360115697 0 1 5
2617 50 15 0 242.5230747660197 275.7627914587399 293.82196356161785 0 8 -6
2619 50 15 0 240.25923526992136 276.7922337002418 288.4408517378496 0 8 -6
1497 41 15 0 231.14019813797154 270.0446790740644 293.3550248578898 0 -6 6
2621 50 17 0 242.55412849792427 276.3274697010264 282.0031983167558 0 8 -6
2620 50 2 0 241.0666909174459 278.16876696589554 285.10738834462063 0 8 -6
7311 24 2 0 238.9609243185458 285.8470301779522 291.3008436869431 0 -3 -6
7310 24 5 0.75 242.42997258041098 287.13996488394935 292.8121730057366 0 -3 -6
2940 22 2 0 239.90179985132818 280.06013464885575 299.02798090783443 0 5 4
2955 22 17 0 262.7232116284388 284.46178970850707 296.83169914538234 0 5 4
1473 41 15 0 248.69213665417598 276.31093390205336 276.68596575969536 0 -6 6