LAMMPS data file via write_data, version 23 Jun 2022, timestep = 70001000

7560 atoms
40 atom types
7533 bonds
1 bond types

-250 250 xlo xhi
1624.3185315391595 1735.6814684608369 ylo yhi
1624.3185315391595 1735.6814684608369 zlo zhi

Masses

1 131.199997
2 57.049999
3 128.199997
4 101.099998
5 156.199997
6 71.08000199999999
7 115.099998
8 129.100006
9 163.199997
10 99.06999999999999
11 113.199997
12 128.100006
13 186.199997
14 147.199997
15 87.08000199999999
16 137.100006
17 114.099998
18 97.120003
19 103.099998
20 113.199997
21 131.199997
22 57.049999
23 128.199997
24 101.099998
25 156.199997
26 71.08000199999999
27 115.099998
28 129.100006
29 163.199997
30 99.06999999999999
31 113.199997
32 128.100006
33 186.199997
34 147.199997
35 87.08000199999999
36 137.100006
37 114.099998
38 97.120003
39 103.099998
40 113.199997

Atoms # full

2835 11 6 0 -234.85401431522138 1645.0366963830445 1634.217095312667 1 1 -2
2836 11 9 0 -238.4008920265759 1644.3643338735224 1634.1011668748486 1 1 -2
2834 11 12 0 -231.76126474506026 1642.9510376899243 1635.4697902804976 1 1 -2
2837 11 2 0 -241.4009740906966 1643.1011250548652 1636.1251302002709 1 2 -2
2829 11 9 0 -232.04060607617572 1633.886440549282 1635.1050109701894 1 1 -2
2089 8 12 0 -236.82231711150092 1632.7426396490437 1644.138369463243 1 -3 -3
2839 11 12 0 -243.68557416811973 1638.3760116458143 1638.502472826901 1 2 -2
2088 8 2 0 -237.51244044683108 1636.4106885665715 1644.2472756146988 1 -3 -3
2085 8 18 0 -235.14261835476918 1646.082321130551 1641.9035794372726 1 -3 -3
2086 8 6 0 -235.4835850002521 1642.4477686714417 1642.782625870369 1 -2 -3
2092 8 6 0 -243.2623300733011 1631.9883899869333 1636.1354168802463 1 -2 -3
2087 8 9 0 -238.78387833116165 1639.9257422647743 1642.9645438049508 1 -3 -3
2838 11 12 0 -244.34324244839706 1642.1667325219432 1638.4032506220613 1 2 -2
2090 8 12 0 -237.2053971564174 1632.8069372576576 1640.394867123785 1 -3 -3
1957 7 10 0 -239.3626346134095 1644.2352918668034 1651.8598272176391 1 3 0
1958 7 9 0 -240.62163253128375 1640.4667237236129 1651.866343709945 1 3 0
2091 8 18 0 -240.32471459310437 1631.1601434574748 1638.8665142199327 1 -2 -3
1939 7 15 0 -234.3706498919214 1635.0336960564011 1648.5528273193581 1 3 0
2093 8 6 0 -246.63528024003193 1633.5492877677266 1635.9384213037174 1 -3 -3
1956 7 2 0 -236.53190458968788 1646.8009809731873 1651.1254325039893 1 3 0
1938 7 15 0 -232.9135571513798 1638.2220431457072 1646.8218634111108 1 3 0
2094 8 4 0 -247.68102847497448 1633.912211436318 1632.560689802439 1 -3 -3
2840 11 15 0 -244.17599292880732 1636.5335986509124 1641.7620421041447 1 2 -2
2828 11 2 0 -231.4339938801786 1630.6590969160002 1637.4044508940474 1 1 -2
3526 13 2 0 -240.78645857290047 1624.4866079926405 1642.6429260912837 1 2 2
3527 13 12 0 -237.3011157822072 1624.3802656852552 1643.195315007796 1 2 2
3555 13 9 0 -245.73889042556533 1630.4900631668636 1645.3593267578192 1 2 2
2831 11 12 0 -231.7547211070729 1636.574178382962 1641.5447033804514 1 1 -2
2830 11 6 0 -231.1125290213913 1636.2182521282812 1637.806282732655 1 1 -2
2832 11 4 0 -230.44482008446812 1640.1772885181092 1641.2826983558205 1 1 -2
1940 7 15 0 -232.15438701974648 1631.887130927582 1647.981463578244 1 3 0
2841 11 9 0 -247.5692349153308 1637.3857583127021 1643.8603971053783 1 2 -2
2095 8 6 0 -248.99092734702867 1636.072294241275 1629.6421636513535 1 -3 -3
3553 13 4 0 -248.06379861897477 1630.197987945434 1639.1565215792286 1 2 2
3554 13 15 0 -246.06945185126978 1631.624396987747 1641.7125869813897 1 2 2
6783 25 12 0 -242.4754971541039 1645.5575428195416 1646.147161127127 1 -1 3
2175 8 2 0 -245.36941655580944 1628.7872576686134 1625.7258637548812 1 -3 -1
2174 8 9 0 -245.23900612384847 1632.56564428569 1625.1030218565368 1 -3 -2
6784 25 4 0 -245.9391008718389 1643.921697550083 1645.5340779488763 1 -1 3
6785 25 6 0 -247.6380603646689 1646.1067800011829 1643.2104916613985 1 -1 3
3557 13 15 0 -249.6501623617924 1630.2087852894267 1651.9520870781473 1 2 2
3556 13 15 0 -247.32605793955094 1631.8139364828223 1649.07843451433 1 2 2
2176 8 12 0 -245.57853912452953 1624.89554971711 1626.5233464175424 1 -3 -1
3558 13 4 0 -249.57839245508052 1627.4826873031873 1649.2956335670515 1 2 2
2170 8 12 0 -233.21046966104007 1632.0138603093083 1624.7190073729741 1 -3 -2
2833 11 4 0 -229.29624716996466 1642.3194572822067 1638.4243388646216 1 1 -2
1937 7 12 0 -229.85503706889727 1640.0920342251352 1648.2169396410509 1 3 0
2168 8 9 0 -229.084655942042 1627.0640444411567 1625.166420130776 1 -3 -2
1936 7 12 0 -227.82630887827952 1639.2973990490286 1651.0342552279178 1 3 0
1944 7 12 0 -221.43766505719094 1639.0528875348728 1647.378500024191 1 3 0
1941 7 9 0 -229.03977799228738 1631.9321276664239 1645.8567429371626 1 3 0
1942 7 2 0 -225.62339113615508 1633.8291529762173 1645.408263725371 1 3 0
1943 7 12 0 -223.20306799816018 1636.0258001839768 1647.0796477702042 1 3 0
4329 16 12 0 -221.77282452077742 1634.5656786476065 1634.2808155186747 0 3 -1
4325 16 18 0 -222.14683678853862 1627.1690954344474 1641.6861457007449 1 3 -1
4331 16 18 0 -216.41142824441027 1630.5487524273997 1634.162707707874 1 3 -1
4330 16 12 0 -219.56205907415927 1631.916710413952 1632.7951015713859 1 3 -1
4332 16 6 0 -214.00611035949828 1630.4902312182692 1637.6759415393508 1 3 -1
4328 16 2 0 -223.23535610017422 1635.4307071265193 1637.2335188998127 0 3 -1
4326 16 6 0 -223.16151859146913 1631.0228110511393 1640.829149816662 1 3 -1
1945 7 15 0 -220.36031470803505 1639.7906084266065 1651.2189216877414 1 3 0
4333 16 6 0 -212.47458593781795 1633.7070042104115 1639.3449978604538 1 3 -1
4334 16 4 0 -214.2029231556483 1636.9514683494456 1639.556296896538 1 3 -1
4327 16 9 0 -221.4798214281339 1634.3497277027657 1640.8821046559774 0 3 -1
4324 16 9 0 -220.9761191691349 1626.9877423314167 1645.2655175188354 1 3 -1
1947 7 14 0 -217.79148136767708 1646.3553175106229 1650.851132066647 1 3 0
4335 16 6 0 -216.60756932006313 1639.815410953659 1639.442193433562 1 3 -1
4323 16 6 0 -223.7024384918567 1624.9961595175794 1646.5364935500797 1 3 -1
4313 16 6 0 -212.90919479666093 1632.4719674786274 1651.2117610547377 1 5 -1
4258 16 4 0 -210.097149629567 1642.2268471652148 1638.8266240505645 1 4 -1
6945 25 15 0 -213.6382339977867 1646.1619896114448 1628.6072672200203 1 0 4
1949 7 12 0 -222.00347634888703 1645.662955712729 1645.7197698018308 1 3 0
4337 16 4 0 -216.9077694092764 1642.2203856750787 1633.0842620988258 1 3 -1
4338 16 5 0.75 -217.37863362882223 1645.6651614417642 1634.2391419871103 1 3 -1
4336 16 18 0 -217.30954667184056 1639.2163954065204 1635.7107947243526 1 3 -1
1878 7 4 0 -226.9682059109312 1628.5496984282265 1652.4084859995091 0 3 0
4310 16 6 0 -213.6958665134282 1640.6161659715212 1645.5753560198823 1 5 -1
4311 16 15 0 -215.88041116964445 1637.5992321987073 1646.4451848610374 1 5 -1
4312 16 9 0 -214.55056821837638 1635.30403145365 1649.3953636352367 1 5 -1
4309 16 12 0 -210.98123865196186 1640.754881063444 1648.2107226155995 1 5 -1
6946 25 9 0 -211.95638044102753 1644.5616631417524 1625.5205013505092 1 0 4
2827 11 12 0 -228.6966038154327 1628.0842420303618 1637.330607553036 1 1 -2
2826 11 4 0 -226.885295191063 1625.6790625128795 1639.40782450925 1 1 -2
4319 16 2 0 -218.8370299956004 1625.5440065063979 1650.5900881352804 1 4 -1
1877 7 15 0 -227.70177478793062 1624.8176825529395 1652.452082896307 0 3 0
4261 16 9 0 -209.06384883213713 1638.5355372585218 1633.45919927621 1 4 -1
4262 16 2 0 -207.2619680506391 1641.0933680688681 1630.8670962554704 1 4 -1
4260 16 4 0 -206.15909707214917 1638.2150178533752 1636.1633338882464 1 4 -1
4259 16 6 0 -207.58708877116106 1639.6040372075367 1639.6550843189943 1 4 -1
4265 16 6 0 -201.30950469541665 1645.3308329889294 1634.3509392313808 1 4 -1
4266 16 9 0 -200.93074957270653 1646.6059984365106 1637.8157057444255 1 4 -1
4257 16 4 0 -209.1120974549695 1645.5844337228466 1640.4687061724314 1 4 -1
4264 16 4 0 -202.94079309786463 1644.3349655715006 1630.8783744034804 1 4 -1
4263 16 12 0 -206.58566316914977 1644.9910526547224 1630.573222736374 1 4 -1
4307 16 4 0 -204.30547047484754 1641.838847305953 1646.446291508298 1 5 -1
4306 16 4 0 -202.16873777414514 1642.3932620204307 1649.6208537430114 1 5 -1
4305 16 10 0 -200.19882852650971 1644.4112845973357 1647.4871303252064 1 5 -1
4304 16 4 0 -196.99271825541143 1645.5493852975403 1648.8446643928098 1 5 -1
4308 16 4 0 -207.25504440093113 1640.6127111805686 1648.0787412792245 1 5 -1
4302 16 4 0 -192.30420408710148 1646.5534594653673 1652.1039325324882 1 5 -1
4303 16 6 0 -193.40158246865462 1644.4476633976096 1649.3401298813724 1 5 -1
4273 16 18 0 -185.8584134909317 1645.2998732920041 1637.974249289631 1 4 -1
4274 16 18 0 -182.1564143008041 1645.3795735835508 1636.8762176620137 1 4 -1
314 2 12 0 48.994813994366226 1644.9126393553854 1629.032041316498 0 -3 -1
315 2 6 0 45.079431198220654 1644.691215304286 1627.8591585728823 0 -3 -1
316 2 9 0 42.32785804296055 1643.067116274626 1629.5298158339767 0 -3 -1
317 2 2 0 39.87806170909798 1645.8975161120559 1628.1861777215117 0 -3 -1
311 2 12 0 53.78072493645835 1637.324646228437 1632.79350021016 0 -3 -1
309 2 9 0 58.98393154005064 1637.1744052457213 1627.5774431790708 0 -3 0
313 2 4 0 51.48749552828588 1644.0988898730466 1632.001573198135 0 -3 -1
312 2 4 0 54.11897726267695 1641.0378403237703 1632.8240640768581 0 -3 -1
3161 12 4 0 68.15412392182763 1624.7213431294301 1643.3996530624333 -1 -1 -1
3163 12 18 0 62.053426906351454 1627.0807642467921 1645.2072057207538 -1 -1 -1
3160 12 18 0 69.38883335515642 1624.9170171160717 1639.7487491237202 -1 -1 -1
3162 12 6 0 64.56592078279574 1626.019435471713 1642.2850406761272 -1 -1 -1
310 2 6 0 55.8957193022767 1635.9888094952087 1629.3502281003691 0 -3 -1
3164 12 12 0 58.99194554002369 1624.7874901237572 1645.859068282403 -1 -1 -1
2083 8 6 0 -241.81788662751654 1648.596949811106 1641.2348734923517 1 -3 -3
2084 8 9 0 -238.60495641983528 1646.911242937478 1640.2221081405232 1 -3 -3
7466 27 6 0 -246.78312926726323 1662.7443873601653 1648.8110915783063 0 -1 0
7463 27 18 0 -248.82197661631142 1665.6622261659463 1643.508632640841 0 0 -1
2079 8 2 0 -244.4395398968016 1651.9507074693606 1630.3622772220886 1 -2 -3
2078 8 9 0 -243.51545509317276 1655.3323361552195 1628.7839683745765 1 -2 -3
2082 8 18 0 -244.94652365201102 1650.1271057180168 1640.0644051933543 1 -2 -3
6852 25 6 0 -242.9958021161936 1658.2088696288943 1636.8511725360752 1 0 3
6778 25 4 0 -237.80433500608933 1654.081002928283 1640.7520925082963 1 -1 3
6776 25 12 0 -233.60993061468525 1654.9638742240336 1645.2466139714224 1 -1 3
6774 25 12 0 -232.1178865179432 1661.5179804689856 1646.293652486357 1 -1 3
6775 25 6 0 -234.10656849461213 1658.6587668361708 1647.2575781329845 1 -1 3
6773 25 4 0 -231.52413806650964 1663.8144382017915 1643.5222873971722 1 -1 3
6779 25 6 0 -240.25477075221931 1656.187796865524 1642.919304625596 1 -1 3
2080 8 4 0 -243.4601323788973 1650.6337510650794 1633.8258339088263 1 -2 -3
2081 8 12 0 -245.3551440276637 1652.0864609146836 1636.8817584176277 1 -2 -3
6772 25 9 0 -231.5788081289718 1663.6188770315064 1639.5411857870956 1 -1 3
6854 25 4 0 -238.2440679371519 1656.3999833232194 1633.1895231311523 1 0 3
6780 25 4 0 -243.54027708244791 1656.1263674640563 1645.4071217598403 1 -1 3
6781 25 9 0 -242.9978977017994 1652.5279776442585 1646.5154099246533 1 -1 3
6853 25 6 0 -240.3566206579497 1658.9827652360943 1634.648072264601 1 0 3
6855 25 6 0 -234.82903886858787 1657.003485900887 1631.681396453818 1 1 3
6851 25 18 0 -246.3983289224892 1658.4140698842207 1635.0603457939162 1 0 3
6777 25 4 0 -236.2691477131366 1652.3117561125766 1644.118447737701 1 -1 3
6850 25 12 0 -248.3965430629845 1661.9154668015872 1636.1561654996246 1 0 3
7467 27 18 0 -248.68618481174428 1659.299129874439 1648.5497004080112 0 -1 0
7464 27 10 0 -246.95168281283253 1667.6259735284168 1645.9607169849287 0 0 0
6856 25 18 0 -231.3804951294511 1656.960802201266 1631.2509545124312 1 0 3
6861 25 7 -0.75 -230.25008435748816 1666.7703792995724 1630.6234054656288 1 0 3
6848 25 2 0 -248.78415948694675 1666.5263321281934 1634.019468705661 1 0 3
7465 27 4 0 -244.38198725265335 1664.3095390213116 1646.3467829508425 0 -1 0
2076 8 15 0 -246.5261716345367 1659.9809765801806 1624.9065628856088 1 -2 -2
2077 8 6 0 -246.72478295846952 1656.6727064264153 1627.00106443007 1 -2 -2
6782 25 2 0 -243.7966404444054 1649.017534092879 1647.9795235492911 1 -1 3
6944 25 15 0 -217.21966678053326 1647.3725303221518 1627.5484233743764 1 0 4
4237 16 2 0 -220.90919438991017 1668.421386922535 1629.9299229339765 1 4 -1
4256 16 12 0 -211.54567475831368 1647.4794832166435 1642.6209262596908 1 4 -1
1736 7 12 0 -216.59814616662567 1664.7073181268 1625.750563895104 1 3 -1
6938 25 15 0 -220.4599175648284 1659.0614333368735 1626.8614732301542 1 0 4
4340 16 12 0 -217.88914657761518 1651.7645979335484 1636.7957063639155 1 3 -1
6943 25 12 0 -220.5743343936656 1648.129855027351 1627.040761138268 1 0 4
6942 25 12 0 -223.86199936815757 1649.616351754064 1628.154064285388 1 0 4
6770 25 10 0 -227.32214118172294 1667.4610454808953 1636.2005653607532 1 -1 3
6771 25 15 0 -228.08517704528293 1665.3521818546856 1639.206268925405 1 -1 3
6769 25 7 -0.75 -223.46992897959268 1665.676703532078 1636.0794463767054 1 -1 3
6941 25 2 0 -224.12770135488074 1652.0429024050807 1625.3218315787108 1 0 4
6768 25 4 0 -220.67947028025173 1665.97261897895 1638.5939120807554 1 -1 3
1952 7 18 0 -228.68251683791635 1648.2748475048702 1651.377996298796 0 3 0
4339 16 18 0 -215.24613806294548 1649.081774992414 1635.8700995863542 1 3 -1
6767 25 18 0 -218.95931624410713 1666.1406868992042 1641.688156220759 1 -1 3
6766 25 12 0 -215.8819474767015 1667.4756881964586 1642.8501701245743 1 -1 3
4245 16 2 0 -211.3129653908474 1659.664120052752 1635.9029582746562 1 4 -1
4243 16 4 0 -217.1474216143148 1659.9812016644985 1637.1172490231181 1 4 -1
1951 7 16 0.375 -227.36319458174097 1648.0527314639794 1647.71649145785 0 3 0
1950 7 7 -0.75 -223.84423465337073 1647.3352302690369 1648.3827579044025 1 3 0
1948 7 5 0.75 -218.8142429458623 1646.8636389806302 1647.293130722843 0 3 0
6765 25 2 0 -214.93051765902806 1667.8232699670345 1646.8206344516914 1 -1 3
6762 25 2 0 -213.6404467059379 1665.8493985560276 1652.3404417687311 1 -1 3
4244 16 9 0 -214.6411765330219 1657.134794928828 1635.3876708615546 1 4 -1
4242 16 2 0 -217.61236095025708 1662.7979014508835 1634.813837482259 1 4 -1
6857 25 4 0 -229.00003288762724 1658.5250450114986 1633.9818690458976 1 0 3
6859 25 18 0 -225.6583881430123 1661.9624879496155 1631.3253851322793 1 0 3
6860 25 12 0 -228.53259401727615 1663.7372865252498 1629.2673662928048 1 0 3
6858 25 5 0.75 -225.44827413181133 1658.4263063809558 1632.9549299567343 1 0 3
4241 16 9 0 -214.61426848605748 1665.2082987220629 1634.207049673303 1 4 -1
4348 16 4 0 -229.37051000016737 1657.1484802450689 1651.035014213749 1 3 -1
6936 25 12 0 -215.8106632297508 1655.921609469593 1627.7348765528493 1 0 4
4345 16 18 0 -224.259572980263 1659.5771391687856 1644.6822047544945 1 3 -1
6812 25 2 0 -224.72424055645536 1668.5648900111526 1650.7617550535624 1 -1 3
6813 25 9 0 -226.2095601727076 1668.2244383305767 1646.9924197666646 1 -1 3
4342 16 2 0 -219.74669076938886 1653.216388828288 1641.640525816329 1 3 -1
4341 16 7 -0.75 -221.3707189180838 1652.755530699575 1637.9671378784285 1 3 -1
1735 7 6 0 -213.41856973703312 1663.39651639607 1627.446486726365 1 3 -1
4236 16 9 0 -224.5447718306711 1668.0502530011538 1628.2849147089673 1 4 -1
6763 25 4 0 -211.16211461547977 1667.9138045237924 1650.6492658023155 1 -1 3
4343 16 17 0 -220.16506277797197 1655.1559214115362 1644.6377192082648 1 3 -1
4347 16 8 -0.75 -226.59726931176777 1659.9438398831287 1651.276513921597 1 3 -1
4344 16 3 0.75 -223.96042695440116 1655.8988812699645 1644.5513378569983 1 3 -1
4346 16 4 0 -223.9825031856863 1660.4980017298224 1648.1879895047498 1 3 -1
6939 25 15 0 -223.56272951609958 1657.3591505482511 1625.3634766491741 1 0 4
6760 25 15 0 -218.3103974480781 1661.482853324984 1651.424716267896 1 -1 3
6759 25 12 0 -215.61601768539902 1658.8948023173114 1650.8403186547744 1 -1 3
6758 25 12 0 -216.95842017921507 1655.4529191666088 1650.999679801873 1 -1 3
6937 25 18 0 -219.11292543682055 1655.7996081236943 1628.5506939333775 1 0 4
1734 7 12 0 -211.2417235549321 1661.3975068420734 1629.5323430711915 1 3 -1
4240 16 15 0 -213.86254418019877 1667.5799424331049 1631.4928351955666 1 4 -1
1747 7 6 0 -210.40270640330743 1669.2397468197432 1625.0835030856856 1 3 -1
4267 16 6 0 -198.60630028031488 1648.6150781144052 1639.8251385174137 1 4 -1
4268 16 4 0 -195.3375065939161 1649.570913010905 1638.541544943501 1 4 -1
4269 16 15 0 -193.52993117723815 1651.5582044120483 1640.8627566026123 1 4 -1
4270 16 9 0 -191.21548429289936 1652.2736629174212 1643.831015884049 1 4 -1
4255 16 6 0 -208.33118617581795 1649.0681400072724 1644.0217732310448 1 4 -1
1748 7 4 0 -207.8797888850204 1666.3272471328826 1625.4765879789024 1 3 -1
4246 16 12 0 -207.9199830292548 1659.0010476734483 1636.1617825081591 1 4 -1
4247 16 18 0 -207.0695928528287 1657.2318369776062 1639.454755047257 1 4 -1
1733 7 4 0 -208.9116633376144 1663.635072815597 1631.5021097598822 1 3 -1
1723 7 4 0 -207.78621135833527 1668.209429944017 1641.4139408544886 1 3 0
4252 16 9 0 -198.219262152655 1651.6167792502217 1646.658053841137 1 4 -1
4251 16 15 0 -201.52405323174963 1652.5531680268814 1648.9798348854079 1 4 -1
4248 16 4 0 -204.44456989489038 1655.886864328707 1641.9729400394779 1 4 -1
4249 16 7 -0.75 -205.66498456628688 1656.1939079200683 1645.3202483327605 1 4 -1
4250 16 10 0 -204.68354673647133 1654.284154623298 1648.4132591059474 1 4 -1
1726 7 12 0 -202.55640684780002 1662.2303172132629 1639.8699406572314 1 3 0
1727 7 18 0 -201.69726900568486 1665.8273690022397 1638.9433218021343 1 3 0
1728 7 4 0 -200.60731128408247 1668.3499272842162 1636.4066722961063 1 3 0
1729 7 7 -0.75 -199.75609951840846 1666.5098986079647 1633.124282851698 1 3 0
4254 16 12 0 -204.53075584963437 1648.741699128389 1643.5908672934756 1 4 -1
4253 16 4 0 -200.6052374167386 1649.406119482316 1644.4322617753153 1 4 -1
1732 7 9 0 -207.4386463711968 1667.0401573544325 1632.5496465634628 1 3 0
1725 7 2 0 -205.8806883207368 1663.2835882059264 1638.197313987358 1 3 0
1730 7 10 0 -201.04476234526862 1668.6758703842622 1630.264369814802 1 3 0
1724 7 9 0 -208.9474363733297 1664.6649548127432 1639.9531840934665 1 3 0
1731 7 15 0 -204.46050650546812 1668.0412494758616 1630.3138879703365 1 3 0
1800 7 4 0 -188.25007720949827 1669.3085557830402 1628.070930376933 1 3 -1
4272 16 12 0 -188.11853449545134 1647.6090189500787 1639.7687598993184 1 4 -1
4271 16 2 0 -188.77940558141427 1649.4040466904148 1642.7894002674589 1 4 -1
4275 16 4 0 -181.87561287353344 1647.4839592473736 1633.7726611169064 1 4 -1
4277 16 9 0 -180.42657864412928 1652.9542428869584 1628.7782809064151 1 4 -1
1802 7 18 0 -182.28327307957835 1668.5561596459765 1632.5607973735748 1 3 0
1809 7 12 0 -171.75314986685964 1656.8587177767254 1644.3747579636138 1 3 -1
4276 16 2 0 -180.06055459463448 1649.5184293361583 1630.9804104592251 1 4 -1
4278 16 4 0 -178.8840448793137 1655.8918867965504 1629.9745557295714 1 4 -1
4279 16 4 0 -177.51611386223317 1657.4424011857889 1633.1586128752913 1 4 -1
1804 7 9 0 -184.0591050542535 1665.2073342976266 1639.3044861962255 1 3 0
1808 7 2 0 -174.6413196968321 1658.4724446880944 1642.8113594003703 1 3 0
1807 7 9 0 -176.50335979962034 1661.088359905128 1645.0948001365023 1 3 0
4282 16 6 0 -176.49395731275894 1661.8626940953552 1635.4715727749233 1 5 -1
4281 16 4 0 -174.22510342237922 1659.4308937818241 1637.9312027481528 1 4 -1
4280 16 18 0 -176.30574583255867 1656.5135370745506 1636.57554678868 1 4 -1
1816 7 18 0 -171.37963984334863 1659.404547615609 1652.023800456402 1 4 -1
1805 7 18 0 -182.34056703426467 1662.1380021104144 1641.0501243968072 1 3 0
1806 7 6 0 -180.23269917807272 1661.4189338941082 1644.286550789169 1 3 0
1803 7 6 0 -183.3630711980303 1667.3410414245195 1636.136024391978 1 3 0
4283 16 18 0 -178.21554884083275 1664.9366503760687 1637.486788955178 1 5 -1
4284 16 12 0 -177.30186446922443 1668.7196056273262 1638.4255131628076 1 5 -1
4286 16 9 0 -171.5352189333151 1664.3430683179567 1640.5794365872564 1 5 -1
4285 16 6 0 -173.7316270125645 1666.9090310093607 1638.7129066151667 1 5 -1
1801 7 12 0 -185.6218965504163 1669.2361057016174 1630.6784067459357 1 3 -1
4289 16 18 0 -172.08973906407124 1667.0941951632865 1651.27899569022 1 5 -1
4288 16 12 0 -172.9460449289682 1666.9025924097061 1647.4274224970102 1 5 -1
4287 16 15 0 -171.2380158846379 1666.0524691622343 1644.0036364528394 1 5 -1
1813 7 6 0 -166.95777233952947 1661.8150503895806 1645.4198246314736 1 3 0
1811 7 18 0 -166.61943981043413 1657.2824782508148 1641.4861435781474 1 3 -1
1810 7 12 0 -169.5328218478901 1654.614716585602 1641.9401547833277 1 3 -1
1812 7 6 0 -164.444222534985 1659.9891617662527 1642.8754904282193 1 3 0
1814 7 4 0 -166.8315257295959 1661.3927463393989 1649.3706271225133 1 3 -1
1815 7 6 0 -167.86784685750644 1658.3359865008683 1651.3877571478313 1 3 -1
323 2 4 0 47.497113425074865 1654.72387218177 1627.752779406114 0 -3 -1
321 2 9 0 46.87123461381914 1652.2940807370628 1633.342690968631 0 -3 -1
322 2 2 0 48.4411248951035 1651.5796168099732 1629.9463454326224 0 -3 -1
318 2 12 0 39.67906451911042 1649.642599671722 1628.3771201355366 0 -3 -1
320 2 15 0 45.09509601894893 1649.290268445025 1632.1636114612838 0 -3 -1
319 2 12 0 41.65730846764942 1649.7812049907843 1631.5414931734392 0 -3 -1
1959 7 2 0 -239.7471351026012 1638.1026762756221 1654.611989638322 1 3 0
1960 7 12 0 -240.1206575921567 1634.4075261481742 1654.172009757966 1 3 0
6322 23 15 0 -240.58954981032787 1625.9541260786227 1680.3575001827385 0 1 -5
1886 7 15 0 -238.150263156363 1634.0502791982203 1660.0393435503645 0 3 0
5235 19 9 0 -249.69659877599344 1624.8179238563278 1680.3268517553008 1 1 2
1953 7 15 0 -230.6315549866411 1645.294278022038 1652.6173366118812 0 3 0
4168 15 15 0 -246.94401350295107 1642.2247501656059 1674.5857584195662 1 3 -4
1954 7 15 0 -232.51966721317933 1646.6019313855677 1655.2074233900726 1 3 0
2867 11 6 0 -248.14242945677438 1642.8700923024855 1659.0039190049677 1 1 -1
2864 11 4 0 -245.4323945806126 1639.518518379039 1663.1988590612625 1 1 -1
1890 7 12 0 -244.4399600083401 1628.7448552592382 1667.5195111044825 0 3 0
6321 23 18 0 -242.8313220945373 1624.8141101057472 1677.5023457231155 1 1 -5
1896 7 12 0 -242.96488638695376 1634.1473741783752 1673.607068806199 0 3 0
1899 7 15 0 -235.07088627678007 1632.0645041321516 1667.4320229166653 0 3 0
4167 15 9 0 -245.78093736324138 1644.0713663052939 1677.8811576249661 0 3 -4
1897 7 18 0 -241.20647023692305 1632.7937516892453 1670.9070471684981 0 3 0
1888 7 9 0 -243.4927025590361 1630.6280783429918 1660.89872653001 0 3 0
1887 7 15 0 -239.98033125036994 1631.4807776405953 1662.311340948709 0 3 0
1884 7 7 -0.75 -235.85593228152374 1639.5540247841088 1660.5341886367503 0 3 0
1905 7 15 0 -231.40282472883962 1630.865438554771 1677.2880512013394 0 3 0
1904 7 15 0 -233.96026677746215 1633.0280228411434 1674.7416023443643 0 3 0
1903 7 12 0 -231.85095227494992 1635.995482519319 1675.0856952257684 0 3 0
1900 7 9 0 -231.6838639822567 1631.0031193382997 1668.5362252311156 0 3 0
1885 7 12 0 -236.86123022480223 1636.5233436512608 1662.5425214869022 0 3 0
1902 7 12 0 -229.99836848463354 1636.2579630621456 1671.73714576243 0 3 0
1889 7 15 0 -244.67622548877762 1631.102422925795 1664.6010638149035 0 3 0
2862 11 2 0 -239.77576920734538 1643.490371711807 1663.5137882506951 1 1 -1
1898 7 15 0 -238.77527756913594 1631.6705735812845 1667.8975909499484 0 3 0
1930 7 6 0 -231.375051122912 1644.27824140045 1665.3082393267778 0 3 0
1929 7 12 0 -233.08145926958872 1641.4537084385972 1667.0928324228555 0 3 0
1926 7 15 0 -238.84983455698665 1644.6864338464904 1671.5862138546302 0 3 0
3639 13 2 0 -240.95350621215277 1628.0908900431812 1655.2087280478095 1 2 3
1928 7 15 0 -236.55510565271237 1642.2354600254307 1667.9902759193494 0 3 0
1895 7 2 0 -246.69591268121656 1635.258822298402 1673.4806778898942 0 3 0
1927 7 9 0 -238.62908629786688 1640.8870417888431 1670.9727321745568 0 3 0
1883 7 9 0 -232.3471064408946 1640.9987172262147 1659.353622252749 0 3 0
2863 11 12 0 -241.98824417144095 1640.759106199464 1662.254910099116 1 1 -1
1925 7 2 0 -239.12044608553765 1645.6629047901606 1675.051102581175 0 3 0
4169 15 12 0 -247.9487448216322 1642.6005178341559 1670.7763226789916 1 3 -4
1875 7 9 0 -231.9055717616468 1625.7478563546454 1658.045946065978 0 3 0
1874 7 15 0 -230.57944497209002 1626.5544257583922 1661.4768337085811 0 3 0
1917 7 18 0 -233.79003338866318 1642.6577327894581 1675.8912241699882 0 3 0
1918 7 4 0 -231.6460825381023 1644.387382047298 1673.4165738018016 0 3 0
1882 7 15 0 -230.899121206598 1637.746153270913 1660.1496563155981 0 3 0
1916 7 18 0 -232.10617213770104 1644.5578601176255 1678.4642563935067 0 3 0
2868 11 4 0 -249.84126823494995 1639.8535005205447 1658.6091120350138 1 1 -1
1919 7 15 0 -231.72562525006566 1646.101686927207 1669.7592636115705 0 3 0
2866 11 9 0 -248.65700995009252 1644.8205674483156 1662.5824713192799 1 1 -1
850 4 15 0 -237.03727715921906 1637.1532198423827 1679.692443078391 1 -1 -5
1873 7 4 0 -231.0058491877221 1625.931839348168 1665.119022121461 0 3 0
851 4 12 0 -240.747689421129 1636.3264010049531 1680.5389450737853 1 -1 -5
1891 7 12 0 -246.76916216236958 1629.5145974013008 1670.2799402405903 0 3 0
2865 11 6 0 -247.4977554486129 1642.1820386785696 1664.912191279398 1 1 -1
3640 13 12 0 -245.01901541655013 1628.1346843054155 1655.0180112728183 1 2 3
4170 15 6 0 -249.06169328530166 1646.140109771862 1670.3291846681784 1 3 -4
3638 13 9 0 -239.38092999510332 1624.72985673202 1655.4886336841548 1 2 3
852 4 6 0 -244.1240693423357 1638.138652959244 1679.935580906731 1 -1 -5
1871 7 18 0 -224.0822401434486 1626.0531527615083 1665.1449217204322 1 3 0
4316 16 15 0 -213.85806655098133 1626.7870652836864 1656.6392664023851 1 4 -1
4315 16 12 0 -211.18671058478287 1629.6554115745107 1657.0416234983586 1 4 -1
1946 7 15 0 -218.6087798616793 1643.0896892399583 1652.9056784193256 1 3 0
4314 16 6 0 -210.3111461852182 1631.1108321876297 1653.8480245848646 1 5 -1
1872 7 18 0 -227.67614798656234 1626.9777253712516 1666.1646562338926 1 3 0
1935 7 15 0 -226.19113891748185 1641.6227427143847 1653.3654131019757 1 3 0
1934 7 9 0 -224.61131658308557 1644.9802727250496 1654.208036409881 0 3 0
1901 7 2 0 -229.24614470230904 1632.589073885469 1670.802727549359 0 3 0
1933 7 12 0 -226.30559847360558 1644.9820224451778 1658.052945586286 0 3 0
4317 16 6 0 -217.84804570897415 1626.7291456471905 1656.4511127018548 1 4 -1
1915 7 12 0 -228.87124412150627 1644.4006603898445 1680.5367752890036 0 3 0
3727 14 15 0 -228.68160208942425 1625.5254117837342 1679.6819761758595 0 -1 1
1879 7 12 0 -226.50857203705567 1629.767881843062 1655.96912944666 0 3 0
1880 7 18 0 -226.5282190195323 1633.1543813442245 1658.1659593842276 0 3 0
1881 7 4 0 -228.66818375972207 1634.4765432070085 1660.8709143722983 0 3 0
1861 7 1 0 -213.19468405729395 1630.019334278773 1664.1850839215033 1 3 0
1860 7 18 0 -211.91980862205259 1630.2670625949743 1667.8448743539586 1 3 0
1859 7 9 0 -212.96714450131122 1633.7037565383596 1669.8316352778957 1 3 0
1856 7 18 0 -212.23867925303466 1641.9296849544498 1673.611726177032 1 3 0
1857 7 2 0 -214.60305865638742 1640.6065527113333 1670.4333564778462 1 3 0
1858 7 15 0 -212.16838546459343 1637.5068159165173 1669.9869682929582 1 3 0
1855 7 10 0 -210.33255345198444 1639.2217542806306 1675.4113825386892 1 3 0
1862 7 12 0 -216.14652894899848 1627.777330175034 1663.9970267398023 1 3 0
4318 16 9 0 -218.69989855321376 1628.3579410294394 1653.2876836274677 1 4 -1
6748 25 2 0 -221.44516516936915 1645.8673264773533 1669.0456844902196 1 -1 3
6750 25 6 0 -216.33456053798807 1642.772806432389 1664.6325305713892 1 -1 3
6751 25 12 0 -213.4807025191434 1643.7910255716004 1662.473422507587 1 -1 3
6749 25 9 0 -218.99208337359676 1643.2672146330187 1667.5500419460968 1 -1 3
4386 16 6 0 -217.73219294192631 1644.5817071055403 1676.7158924615762 1 4 -1
4385 16 4 0 -217.66055378288428 1645.9733612655036 1672.802537109246 1 3 -1
1838 7 9 0 -194.43339964777044 1635.7179617081808 1677.7110084536007 1 3 0
1854 7 12 0 -208.23724510682644 1639.2576024839402 1678.663402015584 0 3 0
6992 25 18 0 -190.41635122328063 1641.5830527725411 1676.5218809997655 1 2 3
6993 25 15 0 -192.23367602198812 1643.2524717171639 1673.614360784709 1 2 3
6991 25 16 0.375 -191.73568823403798 1642.035920254491 1680.0942025963539 1 1 3
6994 25 15 0 -193.22937678905032 1646.0900213540835 1675.3455792601771 1 2 3
4301 16 4 0 -190.2287105828632 1644.4061011553915 1654.4721586623377 1 5 -1
1841 7 18 0 -202.07926744667498 1638.9595759473596 1678.5442204485942 1 3 0
1839 7 17 0 -196.93877406174516 1638.3169045954978 1676.0623747656596 1 3 0
1840 7 12 0 -200.51223518640649 1636.81462953186 1675.2819707384956 1 3 0
1853 7 18 0 -208.58853856005322 1642.8959288262265 1679.7536202205856 0 3 0
1825 7 18 0 -177.99937415483305 1644.827075338303 1672.2442135416318 1 3 0
4300 16 4 0 -187.0924789107927 1643.2602262064759 1656.065866397965 1 5 -1
1828 7 4 0 -177.94116459019256 1641.0138496905704 1680.3346099496323 1 3 0
1826 7 4 0 -176.7512263143359 1641.2277367404138 1672.7863359882042 1 3 0
1827 7 8 -0.75 -176.56714265799133 1640.533624391366 1676.742962154151 1 3 0
5035 18 1 0 -230.3687082936156 1665.043086368673 1680.3627186669157 1 0 -3
7471 27 18 0 -246.29843438551785 1655.5935599620784 1657.9487138470033 0 -1 0
1955 7 1 0 -235.24746417376355 1648.8061636712969 1653.9360426324788 1 3 0
6808 25 12 0 -233.57253802503618 1662.0595215450237 1657.730138938874 1 -1 3
4349 16 15 0 -231.3372920467254 1655.0622919552459 1653.4504873132628 1 3 -1
4351 16 18 0 -232.35364352556513 1654.186683461489 1660.8306184889589 1 3 -1
864 4 12 0 -238.34202871067708 1656.8475961050701 1678.168995846907 1 -1 -5
2016 8 12 0 -244.30254898379843 1667.0470813323705 1678.0143241585035 1 -2 -2
867 4 12 0 -247.61017527135823 1654.0861508519056 1675.7135635459758 1 -1 -5