LAMMPS data file via write_data, version 23 Jun 2022, timestep = 40050000

4374 atoms
40 atom types
3645 bonds
1 bond types

-257 257 xlo xhi
95.05756471773819 192.94243528226028 ylo yhi
95.05756471773819 192.94243528226028 zlo zhi

Masses

1 131.199997
2 57.049999
3 128.199997
4 101.099998
5 156.199997
6 71.08000199999999
7 115.099998
8 129.100006
9 163.199997
10 99.06999999999999
11 113.199997
12 128.100006
13 186.199997
14 147.199997
15 87.08000199999999
16 137.100006
17 114.099998
18 97.120003
19 103.099998
20 113.199997
21 131.199997
22 57.049999
23 128.199997
24 101.099998
25 156.199997
26 71.08000199999999
27 115.099998
28 129.100006
29 163.199997
30 99.06999999999999
31 113.199997
32 128.100006
33 186.199997
34 147.199997
35 87.08000199999999
36 137.100006
37 114.099998
38 97.120003
39 103.099998
40 113.199997

Atoms # full

3246 541 14 0 103.58145048285454 113.25377964620513 112.13671770814628 0 3 -6
3703 618 14 0 106.10488193350602 107.08649996827269 114.27168406559906 0 1 -2
3704 618 13 0 107.41100275712593 104.2497096318116 112.29038324330014 0 1 -2
3443 574 13 0 103.76071970461227 110.87739726621845 95.99346138454834 0 1 9
3245 541 13 0 107.33200577474538 113.58034572824083 112.33736352583963 0 3 -6
331 56 14 0 104.7703159104487 95.95951586961824 107.6842877537235 0 1 0
3705 618 6 0 107.59621806655288 101.57619065723183 115.59970406360763 0 1 -2
332 56 13 0 106.83392184606285 95.09005716157513 104.59149855480392 0 1 0
3444 574 14 0 103.96271237353776 114.79656534734862 96.24329972991912 0 1 9
3442 574 14 0 102.49232803397115 107.36407554192675 95.59089715372622 0 1 9
1000 167 14 0 111.74425718387431 117.51797491717761 105.99376556549058 0 4 1
3706 618 14 0 107.80313029140581 98.40710223908052 117.9494613382272 0 1 -2
999 167 6 0 108.87082407273435 115.12109989664506 105.21175663911188 0 4 1
1362 227 14 0 111.13474696256056 96.73167476775912 112.00122337034875 0 7 -2
3707 618 13 0 110.87883021743018 96.76095984905554 119.6572808579727 0 1 -2
998 167 13 0 108.62461162781347 111.5008391539014 104.0045805429686 0 4 1
1286 215 13 0 121.6504979254902 99.53113323029676 109.20213108497616 0 -1 -7
1285 215 14 0 118.95339025520656 97.03808144379896 110.3118006695771 0 -1 -7
3244 541 14 0 111.17341412038635 113.08687453515896 112.55176317851266 0 3 -6
997 167 14 0 112.03935610535059 109.7201419795488 103.67242057916938 0 4 1
1288 215 14 0 126.66490599610783 100.7554021824262 103.89066141919683 0 -1 -7
3157 527 14 0 122.80465905054311 108.33433337905981 115.65124626793855 0 6 4
3242 541 13 0 113.69029582105118 107.19983690578815 109.90231134969848 0 3 -6
3241 541 14 0 114.79583693078413 104.79203238588471 107.56632634907308 0 3 -6
3160 527 14 0 124.7820926092986 106.79984537336917 106.00784426027755 0 6 4
2368 395 14 0 125.77989700839191 114.43455083817231 109.53862896344171 0 -1 -5
1267 212 14 0 119.1766154788312 112.39714437334885 104.77625541918852 0 -10 2
3159 527 6 0 121.68697749790552 106.04279182778322 108.60288398803904 0 6 4
3158 527 13 0 121.17687498857252 106.66061524271305 112.59511950049311 0 6 4
336 56 14 0 119.31528841924484 99.33162574479384 102.55702624105952 0 1 0
3243 541 6 0 113.37144472684491 110.25791963455758 111.1775675519077 0 3 -6
2369 395 13 0 123.81570299628086 115.0789274981531 112.7093412602488 0 -1 -5
2370 395 14 0 120.1857084647997 114.98612403789005 112.81518291929878 0 -1 -5
1268 212 13 0 121.85523410839492 113.81972253399988 102.48747821073788 0 -10 2
2866 478 14 0 120.19165445162083 106.10588558831653 99.883886844034 0 3 -9
1360 227 14 0 115.85631442480923 101.76576568137708 114.1564770515469 0 7 -2
1287 215 6 0 123.88138444230678 101.15436586367338 106.59508133742453 0 -1 -7
1361 227 13 0 113.118685181739 99.92939895048931 111.75214539963963 0 7 -2
1359 227 6 0 114.82070352814121 104.18178934401041 116.96164229697266 0 7 -2
2867 478 13 0 122.40286564918316 104.00123504379373 97.40561998003595 0 3 -9
2868 478 14 0 124.68455844438974 101.28455825379356 95.32252537113106 0 3 -9
4008 668 14 0 125.19028028109643 97.0081651157114 116.19712161029679 0 1 -6
4006 668 14 0 127.149091473037 102.9632173873496 119.04511873495082 0 1 -6
4007 668 13 0 124.69712847821643 100.92224297362911 117.01079941255247 0 1 -6
1269 212 6 0 121.92821182112826 117.29836112624443 100.94325316972869 0 -10 2
1119 187 6 0 123.01922117048275 119.03969554251537 118.86494930476582 0 6 1
3667 612 14 0 108.42835865020812 113.65189643306257 120.45621841570218 0 2 -1
1358 227 13 0 112.93217891773898 105.73001053165599 119.89977489657642 0 7 -2
992 166 13 0 119.0844879825815 96.94567519238345 119.68743775845046 0 5 5
2865 478 6 0 116.75138605052793 105.84809515084065 101.20180615423196 0 3 -9
1118 187 13 0 120.33030543709052 116.66417334895299 120.43134961361906 0 6 1
335 56 13 0 116.33974750915796 97.10482288770152 103.77927751203543 0 1 0
1001 167 13 0 115.27210143960647 118.98603857451658 105.44122326955879 0 4 1
2864 478 13 0 113.92551208509768 103.545697899132 100.3976665318044 0 3 -9
333 56 6 0 110.21549583513662 96.91866225456855 103.19085308558844 0 1 0
1514 253 13 0 112.07098754233361 115.36674071692201 99.00912639917374 0 11 0
1515 253 6 0 115.84878334534635 114.41928364866116 99.38733916616071 0 11 0
1117 187 14 0 116.88582521130955 115.46602728869037 119.23310883118747 0 6 1
2863 478 14 0 111.13174973078604 103.72357357721081 97.83121749069127 0 3 -9
3161 527 13 0 127.4173073831778 108.5901740105919 104.07654985065784 0 6 4
1516 253 14 0 118.23186067182431 112.59410382336901 96.93599716861245 0 11 0
991 166 14 0 118.73201723566004 100.81880997874467 120.52562847221739 0 5 5
334 56 14 0 113.42584865056665 96.41693412377617 100.91308286116518 0 1 0
1513 253 14 0 110.74932781795023 118.35456822268185 96.94238872828919 0 11 0
709 119 14 0 101.45086152916464 125.44442922744533 120.02334869850546 0 -3 3
711 119 6 0 105.78585384048094 120.88652341167521 118.72263844041204 0 -3 3
4117 687 14 0 99.22186407981262 141.00157623541764 95.11476819297597 0 -5 -5
712 119 14 0 106.72581829611259 120.29063575185312 115.16639853071032 0 -3 3
2733 456 6 0 102.3558101412078 143.7882039932768 115.88507306332077 0 -4 2
3908 652 13 0 107.33576010642305 124.56320877881303 103.95773866074722 0 2 1
2293 383 14 0 102.02026466401806 134.74688146701948 96.49456518550863 0 2 -2
2955 493 6 0 97.47249561095394 143.7477409542368 107.65553632837208 0 6 0
2953 493 14 0 96.61994995700763 136.87277429095218 106.77879984631129 0 6 0
3645 608 6 0 98.45106763700687 133.61314200611878 112.53912768817321 0 3 3
3643 608 14 0 103.32659983754453 128.4861360993724 113.25752602178724 0 3 3
3644 608 13 0 100.13073175113756 129.89307073398675 112.7330608938299 0 3 3
3646 608 14 0 97.31364637913023 136.0494200931256 115.35500914177268 0 3 3
1607 268 13 0 105.23532007600078 131.75640180429315 102.64919938371686 0 3 6
3647 608 13 0 96.02794522678938 139.02651006409315 116.92057290701334 0 3 3
3648 608 14 0 93.68275085307279 141.95792454091367 118.17622264531195 0 3 3
1606 268 14 0 106.89679350089214 135.25212678662376 101.858112101111 0 3 6
1605 268 6 0 104.88078887593706 138.35098567757797 101.01432377725871 0 3 6
1604 268 13 0 102.68321611998005 140.80302603800385 102.97989154316988 0 3 6
3752 626 13 0 102.95833519276823 132.4726878026702 120.3595246886059 0 5 0
2732 456 13 0 102.46574021320534 141.6884001416875 113.18147365396766 0 -4 2
3256 543 14 0 104.26211596189167 139.62277795213564 120.18758601657585 0 -4 -2
1608 268 14 0 103.26945924881845 131.10818101759597 105.85077527756265 0 3 6
1124 188 13 0 106.43222837979819 141.22062972533735 95.8031069707354 0 4 -4
2954 493 13 0 95.86095185597122 140.54402917296636 105.90561522800101 0 6 0
2731 456 14 0 101.81142434690695 139.8579460848459 109.8555296209908 0 -4 2
3253 543 14 0 106.60097173928042 135.45387379700944 110.85191934225841 0 -4 -2
3255 543 6 0 106.38999625911393 138.16211741206672 117.34336283543097 0 -4 -2
3254 543 13 0 107.35660591138816 136.18788925713878 114.48309571627999 0 -4 -2
4118 687 13 0 98.79707298927967 143.87882483388609 97.46800955718626 0 -5 -5
3151 526 14 0 127.8930823777167 142.4225578381626 104.41388423140711 0 7 1
713 119 13 0 109.56329872619541 121.26552551033336 112.67689579452755 0 -3 3
1120 187 14 0 125.97435305726607 120.42620895462362 116.89489902222127 0 6 1
714 119 14 0 112.78933369085794 120.25808915328777 114.01293264641292 0 -3 3
3907 652 14 0 107.96856486312963 121.70986204769055 101.38608944995664 0 2 1
3909 652 6 0 109.85876277514248 127.01242066289099 105.674389680965 0 2 1
1590 265 14 0 109.5431923083063 127.88404861751576 96.4242791975503 0 5 2
3910 652 14 0 109.83043036530387 128.88812274195047 109.08130635940745 0 2 1
3337 557 14 0 115.80995878899769 140.06906118856406 104.19938728968476 0 4 -8
3911 652 13 0 112.69086082107306 129.08557898274108 111.21047638372175 0 2 1
1388 232 13 0 126.87596235894398 122.14913944792262 106.20377968631004 0 1 -4
927 155 6 0 125.48965568058317 126.27384901967747 118.88521046564252 0 -1 -4
3912 652 14 0 115.1977756587758 129.06933885112738 113.68150605738182 0 2 1
1002 167 14 0 118.68952797285952 120.07145216567757 105.4396325016806 0 4 1
1618 270 14 0 115.94272090544668 143.53421643867236 116.93859863985523 0 -5 0
1271 212 13 0 120.33759205482806 123.71891250890873 97.83280860175863 0 -10 2
1585 265 14 0 120.73409595586737 127.03421384272254 107.27262537537412 0 5 2
1586 265 13 0 117.34394623894424 127.12381776028651 105.39879083973749 0 5 2
3342 557 14 0 121.35045229091511 140.32305293256786 113.06243252517604 0 4 -8
3341 557 13 0 118.87395857249 137.8650480566507 114.21617527702136 0 4 -8
1599 267 6 0 126.87123705925835 137.14690500865143 110.31861850643972 0 0 3
3340 557 14 0 115.96998138730851 135.57837783499173 113.09608806891522 0 4 -8
3339 557 6 0 115.23017504004225 134.8294996700078 109.56686787334453 0 4 -8
3338 557 13 0 115.273435527915 136.70129021520404 105.93649733242039 0 4 -8
1597 267 14 0 122.83533027453849 134.03548859048857 108.25771281444351 0 0 3
1598 267 13 0 124.11560697237609 137.60003471622503 107.4862041005524 0 0 3
1595 266 13 0 117.57968207011807 132.93299678789393 119.82613108861217 0 -1 -4
1270 212 14 0 121.20261820830594 120.28747108200496 98.86345686295249 0 -10 2
1592 266 13 0 117.9692687711229 123.12308717581438 117.73522379148494 0 -1 -4
1591 266 14 0 120.23183005958519 124.67764786862185 115.1482423101245 0 -1 -4
925 155 14 0 124.2503001595941 131.09077199372393 113.94537240440428 0 -1 -4
926 155 13 0 126.02586963882082 128.01837184913956 115.52800219509353 0 -1 -4
1272 212 14 0 118.39241348430704 126.80761245438906 98.39152323462334 0 -10 2
1619 270 13 0 113.57095076962224 142.76922280255906 114.06371327928632 0 -5 0
1126 188 14 0 112.28185902409571 138.52255327182928 98.66166726618431 0 4 -4
1127 188 13 0 115.41224941658994 138.34105221806433 96.6251063868275 0 4 -4
1587 265 6 0 116.05750659573744 130.31511046314694 103.95743457553125 0 5 2
1125 188 6 0 109.93883623083536 141.0510377657134 96.75741368399811 0 4 -4
1588 265 14 0 112.97678784823508 131.10975686770897 101.64664349182934 0 5 2
1387 232 14 0 125.4123245786467 121.75394278921628 109.46771685748911 0 1 -4
1589 265 13 0 111.59370906731122 130.60490544750553 98.06867954011285 0 5 2
1620 270 14 0 112.26453796834357 142.17447744584527 110.50820222309872 0 -5 0
4099 684 14 0 109.04761754858878 141.2994271246735 104.56681449732278 0 8 3
3756 626 14 0 110.4935718614497 126.1028173941533 118.21237217112422 0 5 0
1617 270 6 0 119.08231219214923 142.07715260092166 119.20405245042332 0 -5 0
1942 324 14 0 111.7515524437963 117.4583531221563 142.30195598503838 0 2 4
2914 486 14 0 123.07481319825762 112.43012008858308 145.60150261922678 0 -1 -2
2668 445 14 0 117.21407340394808 95.4802361801489 128.19428440994704 -1 5 0
3668 612 13 0 110.66962155329023 116.85087050178018 121.14605274447507 0 2 -1
2776 463 14 0 120.05131209792285 95.81159783463526 134.7059094674196 0 -4 1
3708 618 14 0 112.71822305833253 97.73700003138055 122.61201458890726 0 1 -2
3920 654 13 0 126.4344614417125 96.55052648912373 137.56028553452998 0 1 -3
1116 186 14 0 122.48802783245335 119.34210485599016 143.68839404272074 0 0 7
1190 199 13 0 121.67396509002674 106.85273265339958 141.7399426389455 0 1 1
1192 199 14 0 115.25203370463029 103.59975128793907 144.26999383547601 0 1 1
1183 198 14 0 126.98624476004909 117.61520902507583 123.61949406907705 0 -4 -1
1191 199 6 0 118.03407131158656 105.44982342485861 142.66308171166418 0 1 1
2670 445 14 0 111.67894366825348 99.82597289207308 130.3184416410407 -1 5 0
2669 445 13 0 114.8657403938212 97.66067972567129 129.76203640711103 -1 5 0
2663 444 13 0 113.18512804871615 117.9907202617935 133.89628734649224 0 2 -5
1033 173 14 0 125.4914351571536 104.90919324530721 135.10376511893188 0 -1 5
2913 486 6 0 119.54183798707741 111.85494324904587 144.40942908774585 0 -1 -2
3547 592 14 0 116.82496666665713 117.26660381647682 126.61141405130022 0 1 1
204 34 14 0 122.82594543443882 110.86786151628417 122.683190067948 0 -5 1
1193 199 13 0 111.93648140569361 101.94993965706092 145.33993449644856 0 1 1
202 34 14 0 127.05731747373521 111.72472952145864 128.95082684254285 0 -5 1
1357 227 14 0 109.32581461846573 106.77265753699061 121.32468437166732 0 7 -2
2262 377 14 0 113.42320299877832 110.59675691671187 125.67487589900067 0 0 -1
2778 463 14 0 118.97887085882357 102.83304766736329 135.9884250660298 0 -4 1
2777 463 13 0 118.78118209782774 98.99664274212903 136.00561806726984 0 -4 1
2261 377 13 0 116.29011906209966 108.31270110193672 126.96367441801225 0 0 -1
2260 377 14 0 118.84639669031296 107.21013042867574 129.87888832189117 0 0 -1
2662 444 14 0 113.89391861092844 114.14450200486283 133.37964520069966 0 2 -5
2259 377 6 0 120.74681392424678 104.15345340903288 129.03440510924113 0 0 -1
2300 384 13 0 125.57504011484012 112.8548930967341 136.29277915953907 0 0 -2
2299 384 14 0 122.79112472651732 111.65278431506275 134.14781116409551 0 0 -2
2659 444 14 0 110.47899315707402 105.9645119534954 138.87089818072297 0 2 -5
2660 444 13 0 113.56086437199077 107.34897926576038 137.04590638190894 0 2 -5
2661 444 6 0 113.90581204718676 110.83793466999316 135.10048652808328 0 2 -5
2258 377 13 0 123.07320032239076 101.12091042660515 129.1805045097767 0 0 -1
203 34 13 0 124.52808022738753 110.35979900781047 126.13005601595253 0 -5 1
2911 486 14 0 118.50466046419527 114.14963185727277 138.31792982596033 0 -1 -2
2912 486 13 0 117.04352427000266 112.61878391331705 141.73552136848338 0 -1 -2
2257 377 14 0 123.93324842602213 101.30843770343357 125.41059565159456 0 0 -1
3549 592 6 0 120.5427349154319 117.89141479248171 131.93811572360494 0 1 1
3548 592 13 0 120.38256680941461 116.70490701279526 128.37589214317592 0 1 1
1189 199 14 0 123.60213047084294 103.83862501380379 142.49042356506365 0 1 1
1941 324 6 0 110.35187458492149 113.9047392748002 141.8096395942361 0 2 4
1940 324 13 0 109.29930304794546 110.67616382808073 143.98430676343688 0 2 4
710 119 13 0 103.15700881739403 122.41048710342606 121.13985884470716 0 -3 3
1029 172 6 0 98.38651325861063 125.43586856921924 141.747330356166 0 -4 -1
1027 172 14 0 97.54033192043933 129.82371553467019 138.24053359133322 0 -4 -1
732 122 14 0 98.26862236377738 134.33773063726971 127.5340743356453 0 1 2
731 122 13 0 101.61841329210762 135.43698800725963 127.69003097160173 0 1 2
3751 626 14 0 99.4373683094779 133.6612968081565 121.18776397020198 0 5 0
768 128 14 0 103.3893513395907 141.34867935191374 131.86899359716895 0 5 -4
3257 543 13 0 101.78925944851407 140.58380521584382 122.95373325126691 0 -4 -2
3258 543 14 0 99.02095856478691 141.46640931846846 125.60272867900078 0 -4 -2
3753 626 6 0 106.4506805827542 133.85969811671194 120.82779714958409 0 5 0
1028 172 13 0 95.56291778709272 127.86060560504482 141.08684389912722 0 -4 -1
1030 172 14 0 99.79355714143158 122.80861044580926 144.47171604865628 0 -4 -1
730 122 14 0 105.45215240683422 134.58786250357986 127.1630159068237 0 1 2
3672 612 14 0 108.54235314310962 124.65295246954206 129.55832859648856 0 2 -1
3173 529 13 0 123.55010929910051 128.7859506694418 133.5049965472557 0 -4 3
1113 186 6 0 122.56127657945275 128.6574962421947 144.3033166106732 0 0 7
3779 630 13 0 122.91426909557829 142.82618228586617 143.88566661341562 0 -2 1
2626 438 14 0 125.11605473498845 135.00202706771793 131.92039004807575 0 -2 3
1738 290 14 0 111.11299367546201 139.09310819454208 139.53869954124397 0 4 -4
1616 270 13 0 121.5636037873197 141.04382233458915 122.20355396917047 0 -5 0
2627 438 13 0 124.78260824108384 136.4566195297813 135.5116143530643 0 -2 3
928 155 14 0 123.42197584826489 125.63649969951844 121.6814961127224 0 -1 -4
844 141 14 0 116.084911793937 138.84468657823243 129.12184032301712 0 8 3
1594 266 14 0 117.43862069436423 129.2509910053042 121.11200642341514 0 -1 -4
1596 266 14 0 116.9225374971865 136.4153102900028 120.86559179865948 0 -1 -4
1593 266 6 0 116.75714668354183 125.49536185839627 120.85203417616938 0 -1 -4
3172 529 14 0 125.92837943548236 127.32241301852633 130.87976129373044 0 -4 3
1615 270 14 0 121.3979265467689 140.24569080082236 125.9842358004809 0 -5 0
930 155 14 0 119.77669825929542 124.07079341007824 127.8777911413414 0 -1 -4
929 155 13 0 122.06665885072773 124.58360673617634 124.88737808656819 0 -1 -4
3174 529 14 0 119.70319577543226 127.35078401611217 133.79046823241535 0 -4 3
1114 186 14 0 125.16452255999502 125.67175772218522 144.01775379252825 0 0 7
841 141 14 0 120.23063048126731 142.5173049125733 137.42387476083636 0 8 3
1111 186 14 0 117.2529658987321 132.79839744393558 142.4602232633513 0 0 7
1737 290 6 0 108.15449926192571 141.47346500282293 140.02559467894903 0 4 -4
1943 324 13 0 114.46452335260838 119.83395149647764 144.20541873134738 0 2 4
2664 444 14 0 114.46367108435201 120.57950397366915 136.82196602922198 0 2 -5
3170 529 13 0 126.22862950141136 120.92305184597578 129.6436211396619 0 -4 3
1112 186 13 0 119.96186943342272 130.29877632965594 141.84510501146 0 0 7
3550 592 14 0 121.65874277078612 119.99985223216164 134.59726849075136 0 1 1
3670 612 14 0 112.31959651657229 123.01641308666065 124.63334434827296 0 2 -1
3669 612 6 0 112.3991499168693 120.31491671801464 121.93280761524376 0 2 -1
1944 324 14 0 116.92052098200341 122.8300283525538 145.45550572258873 0 2 4
3551 592 13 0 124.61153822139896 120.04328122150127 136.86895791848949 0 1 1
3171 529 6 0 127.61348974030729 123.96055321164533 129.9735481951979 0 -4 3
2625 438 6 0 124.47463381056926 134.39500127107672 128.10301403270603 0 -2 3
3754 626 14 0 109.75920348858855 132.38919991783186 121.17341005920517 0 5 0
727 122 14 0 115.14800199443151 130.59304404117728 130.26134096835926 0 1 2
2628 438 14 0 123.47607404688868 136.49986558931764 139.14220346088817 0 -2 3
1115 186 13 0 124.6355342495592 121.9388603194945 144.8664077084137 0 0 7
1740 290 14 0 116.90494619827602 136.6639621348528 136.75500682733173 0 4 -4
728 122 13 0 112.44731962124197 132.8529088554267 128.3552258352705 0 1 2
729 122 6 0 108.85293932609093 132.8714587625181 127.13008640959656 0 1 2
1739 290 13 0 113.19135393178323 137.22798454543866 137.3131742212853 0 4 -4
3671 612 13 0 111.21501712214344 125.38406477951492 127.2037507456399 0 2 -1
3755 626 13 0 110.5946387251061 128.71883571128043 121.01611492314134 0 5 0
843 141 6 0 118.64019759827251 139.966539430517 131.1091409361903 0 8 3
845 141 13 0 113.49464663789666 140.14650632768067 126.7222756310854 0 8 3
846 141 14 0 109.57099646001512 141.12263364344932 125.42607232547257 0 8 3
2623 438 14 0 125.17851303677558 133.1567057615618 121.89586438324407 0 -2 3
2624 438 13 0 122.66986968388 133.53686568287785 124.6694288945992 0 -2 3
3780 630 14 0 119.22291751923834 142.32892577849145 144.06268975696514 0 -2 1
842 141 13 0 120.43588010489303 141.906699298101 133.8886273242957 0 8 3
2415 403 6 0 136.6658900491112 102.02001729713717 102.8592980393914 0 1 -2
2685 448 6 0 143.10970570486145 109.67405793689504 106.69699870589878 0 -4 0
2684 448 13 0 141.08448185735708 109.00469748361844 109.92367636524297 0 -4 0
2416 403 14 0 135.43531600300628 101.50077964141192 106.49689893050471 0 1 -2
2418 403 14 0 138.34502474780572 101.92249835877226 113.56577319786587 0 1 -2
2417 403 13 0 135.64298928900922 101.54207338220961 110.66912316234952 0 1 -2
2683 448 14 0 137.92477254946593 108.08937648729497 108.40171114685842 0 -4 0
2414 403 13 0 137.96435693576512 104.49685743854226 100.29682168063584 0 1 -2
3482 581 13 0 147.57532375440886 96.85531797264753 115.80948180775694 0 1 0
3481 581 14 0 151.19554384198022 98.0327670265175 115.51480508762413 0 1 0
1416 236 14 0 137.840279219206 116.43079355925764 96.98809110198205 0 -4 -2
1415 236 13 0 135.08975744303754 113.79290192203125 97.24621571172199 0 -4 -2
2534 423 13 0 144.7239165950393 102.61694419020185 103.39639591377704 0 -5 -2
3731 622 13 0 144.82121672056655 107.05035701774835 116.80111685438284 0 0 3
2533 423 14 0 141.95457737584036 103.28900737728495 105.91019601011591 0 -5 -2
3732 622 14 0 146.226846128628 104.15827677181426 114.55575403258844 0 0 3
3906 651 14 0 149.50435452988944 107.14225243459985 108.12182169314679 0 0 0
3905 651 13 0 150.43632232291023 110.93805486281647 108.21047120335513 0 0 0
2413 403 14 0 138.21637582544787 108.10943443955406 101.01434941526345 0 1 -2
3904 651 14 0 148.45093684073893 113.85511671747811 109.72406001586822 0 0 0
3903 651 6 0 144.8632674380906 114.57454411120217 108.75687433310706 0 0 0
3730 622 14 0 142.98681455796424 108.58357823421245 119.91073039790507 0 0 3
3390 565 14 0 149.80283780616105 114.29759694190959 117.61257730785623 0 -5 -1
2686 448 14 0 143.4893155908363 110.73218414850352 103.0667590835336 0 -4 0
3902 651 13 0 142.15796246911341 117.00013296306345 108.36717504974837 0 0 0
3901 651 14 0 139.53053229075795 119.53199016928366 109.56239041196066 0 0 0
2535 423 6 0 144.75413457789486 98.84411961284728 102.65788253601062 0 -5 -2
1414 236 14 0 132.14789286271605 111.45279059053807 97.98431550466502 0 -4 -2
2688 448 14 0 146.64513291024878 117.45069387161702 102.6984133708167 0 -4 0
2687 448 13 0 144.92037398437608 113.94326800316828 101.95208244593756 0 -4 0
880 147 14 0 137.99278871970878 97.66738543953196 97.9593796101172 0 -1 5
4097 683 13 0 134.88527843647003 108.66086731827812 114.54787667724206 -1 1 7
4098 683 14 0 133.48296550473748 106.22225114363837 117.29997404646662 -1 1 7
1412 236 13 0 130.97596396497184 104.58357828321599 98.15751259925534 0 -4 -2
95 16 13 0 152.23155689506225 110.37332981129885 100.73861989131659 0 -6 4
4096 683 14 0 135.16817523530733 112.58768924491235 115.35912356260447 -1 1 7
4095 683 6 0 136.51083601197305 112.34099510367885 119.35003249698148 -1 1 7
1413 236 6 0 129.77643224117355 108.50642831641359 97.88398893838988 0 -4 -2
3389 565 13 0 145.84587508094202 114.4972792293181 117.11047963563387 0 -5 -1
1289 215 13 0 129.63770865845137 98.76098733868217 103.6454526393956 0 -1 -7
1122 187 14 0 131.1568469751412 117.38929892598436 113.05348884661825 0 6 1
2365 395 14 0 135.7928726358877 113.68256586410936 105.18315736858972 0 -1 -5
1391 232 13 0 130.54776816433954 119.41876020543037 98.1152966430957 0 1 -4
4175 696 13 0 144.81162483905348 101.3522064404223 95.86008666754086 0 4 0
2366 395 13 0 132.96732046909872 113.3889292342085 107.36360004165225 0 -1 -5
1121 187 13 0 129.2163103076033 119.29235689521296 115.16835153254117 0 6 1
3044 508 13 0 135.530812919528 99.15268640483728 120.28528432872108 0 0 -7
3162 527 14 0 130.9942412903374 107.33526208169508 104.71129650838188 0 6 4
4176 696 14 0 144.4237220855631 104.64930849155033 96.50129811870933 0 4 0
3043 508 14 0 139.40776535864916 97.44181638636233 119.84202958380686 0 0 -7
695 116 13 0 128.64997444752112 104.04384020753659 111.4583194093326 0 -2 -3
3879 647 6 0 152.25310323118902 119.33738101685557 111.75775535862347 0 -4 5
3388 565 14 0 142.23687232024193 114.80325866841949 115.2996636305661 0 -5 -1
3387 565 6 0 140.56072632319788 118.42271176202252 115.1234687116454 0 -5 -1
1290 215 14 0 132.18608954113122 96.44513173811954 101.84027149086786 0 -1 -7
96 16 14 0 149.6156642878384 107.59223096317022 100.71911666982433 0 -6 4
2536 423 14 0 146.50352854524132 96.0976023202045 100.77950496380015 0 -5 -2
3827 638 13 0 149.92488663896142 95.43705944920141 108.08408772669918 0 0 3
3483 581 6 0 145.81879500646383 97.08938647697212 119.28368871167261 0 1 0
546 91 14 0 150.78131519626152 104.2151013689528 120.21392064315138 0 -1 -2
1390 232 14 0 128.06608921594395 117.8255593133204 100.41247913766034 0 1 -4
2092 349 14 0 151.4681659055516 117.31741751421531 95.52430300640442 0 3 5
693 116 6 0 128.842495987535 110.95726251744733 114.35542678201725 0 -2 -3
2091 349 6 0 152.01241797563054 117.19127372027482 99.37612788635647 0 3 5
1411 236 14 0 132.13558132667526 101.57554183326076 96.52874115077448 0 -4 -2
694 116 14 0 128.67450250777708 107.78970581652838 111.60657573736289 0 -2 -3
2849 475 13 0 151.7373504004826 103.12511741750983 95.49222561052952 0 2 4
2848 475 14 0 151.74050120859857 100.2825926723479 98.227448717929 0 2 4
1847 308 13 0 143.95068815489003 111.07778990613505 95.43421933478702 0 2 3
696 116 14 0 128.7272448473698 100.26668704729175 111.06113835413043 0 -2 -3
3828 638 14 0 151.54138050439045 98.69295671531216 108.73000737121595 0 0 3
692 116 13 0 128.8685211966654 111.91080486226222 117.96184309530254 0 -2 -3
2367 395 6 0 129.64375787278544 113.46993293007513 108.51079962210866 0 -1 -5
1389 232 6 0 128.35823333699938 118.93294851033068 104.31253108455265 0 1 -4
545 91 13 0 153.1191278745804 105.28948266786895 117.84428482603968 0 -1 -2
3152 526 13 0 130.88711880323743 142.25152593490688 106.93210271573486 0 7 1
3745 625 14 0 145.0323905409025 132.5546546579858 97.37635000044673 0 -7 4
1602 267 14 0 129.5165445477899 128.83337329908136 105.99845597383488 0 0 3
912 152 14 0 131.6324925726622 139.268585901013 97.1126732401869 0 -1 -4
952 159 14 0 128.88878773990248 138.10455571563386 119.80381007063013 0 1 -6
3741 624 6 0 148.7683249886213 140.83204342182364 106.09215377907933 0 -3 -1
2551 426 14 0 152.94153767417706 121.5987500149851 117.40550691254316 0 4 -2
1529 255 13 0 152.7274067417732 130.95046094560428 102.14381989453395 0 -2 1
1530 255 14 0 150.52258449963344 128.28108109637216 100.18949474801659 0 -2 1
3739 624 14 0 151.03292338537935 137.05955095608212 99.93536541080022 0 -3 -1
3419 570 13 0 150.11896231774804 134.68878933793744 112.30547083029214 0 0 0
4215 703 6 0 135.88769789256003 131.79030720094684 97.2670334243406 0 2 0
3877 647 14 0 146.28455086596807 122.73253972744826 114.20923141881663 0 -4 5
1525 255 14 0 148.3682841286541 124.34615309882406 107.315471095913 0 -2 1
3878 647 13 0 148.65934777480228 120.1911986302872 112.5640383530927 0 -4 5
1527 255 6 0 152.32630609693234 129.84541925168563 108.39419358030408 0 -2 1
3386 565 13 0 138.65773698338936 121.35090733150868 116.67676385135061 0 -5 -1
1526 255 13 0 149.14420721042018 127.6447619316046 109.11391989931533 0 -2 1
3385 565 14 0 137.55948702375954 125.10044621820803 115.96289019007924 0 -5 -1
2553 426 6 0 149.85505079891618 126.29616663388954 118.76243492903636 0 4 -2
2716 453 14 0 139.13363754489987 140.8776925909845 112.64878037440617 0 -2 4
1712 286 13 0 133.82034736166318 121.74340491714763 106.7025560543291 0 3 -2
1711 286 14 0 133.86602202410043 123.78972725540434 109.82611700135132 0 3 -2
1714 286 14 0 140.13005360396804 121.40443295470635 102.62662208612386 0 3 -2
1715 286 13 0 140.37056054643872 123.82509729548785 99.82452036296651 0 3 -2
1713 286 6 0 137.03926658935563 121.3475407678791 104.51864545882718 0 3 -2
726 121 14 0 145.1358575806615 131.9164296917193 106.0161943766906 0 -5 -1
4217 703 13 0 138.24665966823014 138.182516968517 99.70596270730687 0 2 0
909 152 6 0 135.02253468877777 136.32330043874444 104.57516623984998 0 -1 -4
721 121 14 0 143.96515607296965 132.44348682409282 114.60918987426324 0 -5 -1
2714 453 13 0 136.4630246981094 134.20811706451073 114.13975764065256 0 -2 4
723 121 6 0 142.34041850721033 125.87350532833021 111.12679501557496 0 -5 -1
722 121 13 0 142.98958496211546 128.71206882196634 113.73436563630814 0 -5 -1
2713 453 14 0 136.57720529227947 131.38290564177987 116.66803605308218 0 -2 4
907 152 14 0 141.03202174612235 137.22141890880872 106.84283409888118 0 -1 -4
908 152 13 0 137.53738056381235 135.40454237289927 107.42975736293533 0 -1 -4
910 152 14 0 131.66439907595057 135.50208106526134 102.71115641228411 0 -1 -4
724 121 14 0 140.27228990989673 126.37810716412176 107.76823193845038 0 -5 -1
725 121 13 0 142.05880596113974 129.56345760325982 106.00185827279061 0 -5 -1
911 152 13 0 130.71999687308292 136.20323877197498 99.00140405768728 0 -1 -4
1716 286 14 0 143.2627731241303 126.19700405784495 99.17125465141586 0 3 -2
2515 420 14 0 128.9295440146964 129.62519426314256 96.35095192633396 0 -8 -3
2715 453 6 0 139.08653528899305 137.2145531814755 113.35286798325896 0 -2 4
2552 426 13 0 152.85183738279864 125.34431807589922 116.99424696277502 0 4 -2
1946 325 13 0 139.1637025093439 138.3563152868869 120.18199723473839 0 -4 2
1947 325 6 0 142.90122417901176 138.8887159291704 119.29378225482424 0 -4 2
3740 624 13 0 149.26778094455858 138.45130365076693 103.02288079983254 0 -3 -1
4213 703 14 0 135.87155806469445 128.10727425088072 102.83297388141574 0 2 0
4216 703 14 0 138.56111192883102 134.61589176756868 98.37817847536789 0 2 0
4214 703 13 0 134.89160831898758 128.65270802123834 99.38065076980415 0 2 0
1392 232 14 0 133.59891849579844 121.5083424837623 99.31700460746232 0 1 -4
4218 703 14 0 138.00135750855048 141.31557571887302 101.45990437859864 0 2 0
2554 426 14 0 146.5836388922761 124.94271975687666 120.29552008853078 0 4 -2
1528 255 14 0 152.05730286224687 132.5866098386938 105.50922328577833 0 -2 1
3420 570 14 0 147.18602550883932 136.84969503313167 110.6698058367684 0 0 0
1601 267 13 0 129.44861362388772 131.38505440599315 108.84454728601865 0 0 3
1949 325 13 0 148.0824375758915 135.87583721395333 120.69469878055683 0 -4 2
194 33 13 0 132.0770712599833 125.06243674147314 120.58795316756222 0 -2 -8
1950 325 14 0 148.87623126750637 132.4074575117481 119.39873368314852 0 -4 2