LAMMPS data file via write_data, version 23 Jun 2022, timestep = 1050000

6000 atoms
40 atom types
5000 bonds
1 bond types

-251 251 xlo xhi
108.15752667160888 215.84247332839385 ylo yhi
108.15752667160888 215.84247332839385 zlo zhi

Masses

1 131.199997
2 57.049999
3 128.199997
4 101.099998
5 156.199997
6 71.08000199999999
7 115.099998
8 129.100006
9 163.199997
10 99.06999999999999
11 113.199997
12 128.100006
13 186.199997
14 147.199997
15 87.08000199999999
16 137.100006
17 114.099998
18 97.120003
19 103.099998
20 113.199997
21 131.199997
22 57.049999
23 128.199997
24 101.099998
25 156.199997
26 71.08000199999999
27 115.099998
28 129.100006
29 163.199997
30 99.06999999999999
31 113.199997
32 128.100006
33 186.199997
34 147.199997
35 87.08000199999999
36 137.100006
37 114.099998
38 97.120003
39 103.099998
40 113.199997

Atoms # full

5176 863 14 0 102.7693663736295 128.1654060140494 129.12537055314823 0 0 1
5177 863 9 0 105.89320136525465 128.32199357211985 131.0539386024998 0 0 1
41 7 9 0 116.4757749190159 124.86368232317417 109.91942782666732 0 0 0
5520 920 14 0 112.55691725578309 116.90493182541644 120.958611490076 0 1 1
5175 863 6 0 102.86303574538829 128.4398624453587 125.00400666325217 0 0 1
5174 863 9 0 105.17587311912783 127.78425361822651 121.83589273371476 0 0 1
5173 863 14 0 108.57370120176822 127.87266471809076 123.52514049964826 0 0 1
1234 206 14 0 114.48896081590709 126.51646156193975 118.0362417287825 0 0 -1
5178 863 14 0 109.17654208799318 127.29643625248848 131.7269970046138 0 0 1
1652 276 9 0 114.20677670243148 121.25906258626368 128.86503169587317 0 0 1
3321 554 6 0 117.71211931894013 129.40423242651397 133.16537887549632 0 0 -1
1653 276 6 0 117.43674483595382 122.49066381645623 127.51805087766992 0 0 1
1651 276 14 0 113.48194219910928 117.6570267808806 128.756356598028 0 0 1
5519 920 9 0 116.3373998098845 115.99513507317667 122.26427436608746 0 1 1
3320 554 9 0 115.40494965883937 128.3214570947618 129.63947214103072 0 0 -1
2156 360 9 0 111.68544948631323 120.88276401154566 111.98927612868076 0 -1 0
3953 659 9 0 112.88627034640176 111.07879760147121 132.3267692594924 0 1 0
1235 206 9 0 111.94676729351295 128.37947185597685 115.89533386416855 0 0 -1
1236 206 14 0 109.37918183944315 130.69858823339158 116.38086950406903 0 0 -1
954 159 14 0 113.60000735187488 108.43758366409874 111.3699072299173 0 1 1
2155 360 14 0 107.79957714728715 120.67353159540865 112.75878557527912 0 -1 0
1561 261 14 0 116.63105252122854 131.7239124547508 112.33002312005522 0 0 1
949 159 14 0 115.63383048560054 115.11950995851458 113.89008093676875 0 1 1
2157 360 6 0 113.24203000256652 118.67937850220787 109.28152069703944 0 -1 0
3954 659 14 0 111.743925764731 109.07502664808082 129.60421519147488 0 1 0
1233 206 6 0 118.04530958882661 125.27986648064662 117.76349886752689 0 0 -1
3319 554 14 0 117.87119161349369 128.7399488188021 127.10634285024732 0 0 -1
40 7 14 0 119.26709639901618 122.79413442248786 111.71429511490678 0 0 0
950 159 9 0 118.57553709775533 113.98411123528749 111.83712795085506 0 1 1
5518 920 14 0 118.48629735572982 113.43121377484269 119.98779484553906 0 1 1
2909 485 9 0 136.7741599617641 109.68176392518203 113.41263231525777 0 1 0
5516 920 9 0 123.065046975787 110.5399061939494 115.22029909233939 0 1 1
5517 920 6 0 121.27542618737985 112.85543632671745 117.60455900214849 0 1 1
39 7 6 0 122.94769469587999 122.15536939299386 112.62106650981083 0 0 0
1224 204 14 0 123.5241907273874 130.35688897836573 108.59011629028251 0 1 0
5263 878 14 0 135.18686404164254 116.12945691397148 108.84960884286761 0 1 1
5358 893 14 0 124.73671983909105 117.59026526172495 117.7837623598863 0 1 1
4441 741 14 0 129.59981996685994 122.63844390883486 120.42854737365344 0 1 1
4442 741 9 0 133.25300790038813 123.30822151913472 120.49305946763191 0 1 1
1656 276 14 0 128.2238857907781 123.16309599737704 129.50232254719896 0 0 1
38 7 9 0 126.35920071378801 123.50968391717679 111.64948124822475 0 0 0
37 7 14 0 129.52927622568083 122.89434658329445 113.66461868481639 0 0 0
4218 703 14 0 119.64268690707732 112.42651517407218 129.54233266729048 0 1 1
5357 893 9 0 127.72669853450897 115.23102407280537 117.5948927448817 0 1 1
4217 703 9 0 121.96298959231659 114.862882297751 127.42621804153262 0 1 1
1655 276 9 0 124.3890449852341 122.20553584048655 128.2201377739007 0 0 1
1654 276 14 0 120.93708388428654 121.9229770147099 129.08857239265927 0 0 1
4216 703 14 0 125.67780549220637 115.0500149645927 127.48563679023796 0 1 1
1232 206 9 0 120.36685557654972 122.43949421242911 119.14624199273588 0 0 -1
1231 206 14 0 123.34545879283144 123.87384601231533 120.23803788133839 0 0 -1
5233 873 14 0 125.92716806228287 128.7507310464856 124.7295986272467 0 1 0
4955 826 9 0 123.95480747033197 132.87927568911397 130.6006056611306 0 -1 0
5356 893 14 0 128.32442738486807 112.09006780234236 119.66086039082474 0 1 1
5234 873 9 0 129.56508047188512 128.77063616681232 123.26050087394675 0 1 0
4215 703 6 0 128.08622633538494 116.34311874732796 124.70148946487414 0 1 1
4214 703 9 0 132.05369705363137 115.4574814521233 124.96650060787314 0 1 1
4964 828 9 0 134.7727189267839 111.99720288900187 133.49029424269315 0 1 1
4290 715 14 0 137.14847606793614 132.8587269220876 112.7966109668169 0 0 1
846 141 14 0 121.73416707909435 130.66353692549055 115.63350979606112 0 -1 -1
4289 715 9 0 133.61934876771392 133.72821646992136 113.87804646982391 0 0 1
4213 703 14 0 135.64445421164916 116.65252556825226 124.0965631675082 0 1 1
5264 878 9 0 131.76607121633154 117.63481854876537 109.08359898888702 0 1 1
4956 826 14 0 126.04834953447016 129.8650626222424 131.57923581722432 0 -1 0
5515 920 14 0 125.09781782301111 109.59787119678526 112.06106207620581 0 1 1
5355 893 6 0 130.85928357904885 110.34672751777305 122.0189109366237 0 1 1
951 159 6 0 119.93648860170448 111.09992399041624 109.98203548670685 0 1 1
5236 873 14 0 135.755789259492 132.92522324969167 122.33282672242431 0 1 0
4288 715 14 0 129.7857022515023 133.32769833903768 113.77916515682723 0 0 1
845 141 9 0 120.81273873187799 133.16412813455807 118.86702503090062 0 -1 -1
5235 873 6 0 133.00678552764805 130.2454927380975 121.89699970231334 0 1 0
5354 893 9 0 134.36104807999712 110.09962100509115 122.06733293355643 0 1 1
4963 828 14 0 132.66824821537375 115.45304542323562 131.95715915273234 0 1 1
4443 741 6 0 136.10440348065322 124.84637167080707 122.02303735144336 0 1 1
2421 404 6 0 125.11280865513156 109.09661597973306 127.27787923616411 0 0 0
4540 757 14 0 137.23506000992538 125.60934883463489 113.74976900281936 0 0 1
4878 813 14 0 124.72599185615674 116.38383699990116 110.35446194431711 0 -1 0
4445 741 9 0 135.85060416489915 127.23400918740488 127.90309325707221 0 1 1
3684 614 14 0 134.6215552297037 117.1071453529659 116.95501944235875 0 0 -1
2910 485 14 0 133.30288828421197 110.74535351371817 114.06748984024468 0 1 0
4446 741 14 0 133.5922363322246 127.87386952733327 130.48439447751673 0 1 1
2420 404 9 0 123.17184197076287 108.28834626665514 124.18271956634908 0 0 0
2047 342 14 0 133.71102115958175 125.96024319298988 108.16085929623947 0 1 0
5844 974 14 0 95.48172002276314 154.99721292550717 127.00771820653435 0 0 0
5843 974 9 0 97.84359031794023 157.00521375761082 129.09638201585503 0 0 0
3031 506 14 0 92.68182393425498 148.21318981396902 131.12164060654288 0 0 1
3032 506 9 0 95.59776193942719 146.6616042796041 130.77889011598793 0 0 1
3033 506 6 0 97.59725249025 143.7343429465683 130.01393357707224 0 0 1
841 141 14 0 114.14319779953279 135.4471183974792 127.13227633870491 0 -1 -1
1562 261 9 0 116.98726645183332 135.55103094800637 111.91803896972664 0 0 1
4788 798 14 0 101.94357026360039 159.52552625124233 123.36308315845403 0 1 0
1064 178 9 0 112.66015548189601 159.77951893279553 123.10656377108592 0 0 1
3724 621 14 0 107.31611521082993 145.43447729406066 108.71748508571271 0 0 0
1880 314 9 0 109.79587860569379 152.5162228182375 118.52028658950269 0 1 -1
5840 974 9 0 101.78009067162039 151.60251346024555 124.33149081710891 0 0 0
5841 974 6 0 102.7372978966777 153.79959979331738 127.24745002430248 0 0 0
5842 974 14 0 101.46466103095197 155.21950553558455 130.64056677774485 0 0 0
842 141 9 0 111.66577371892974 135.36548440005868 124.0601322364703 0 -1 -1
3722 621 9 0 111.4843330115337 139.5592966109058 109.78476202878286 0 0 0
3723 621 6 0 110.39367541997363 143.19880744835933 109.38017401479702 0 0 0
843 141 6 0 114.29602410196034 135.67225458596607 120.8609852133456 0 -1 -1
1883 314 9 0 114.36068844742 145.95483789141574 116.35498344421325 0 1 -1
4762 794 14 0 109.40864077240414 154.20132257849923 132.37773581379727 0 0 -1
5839 974 14 0 101.0542699361776 147.97637818497643 125.57100040442127 0 0 0
1206 201 14 0 109.36765285512335 142.939697309986 127.55372229947072 0 0 -2
1205 201 9 0 111.0780443750342 144.55979168965052 130.45738274115234 0 0 -2
1203 201 6 0 114.6415024901436 150.54867678226958 132.36677877195478 0 0 -2
1204 201 14 0 113.76959116507891 146.83725023458555 132.86861120027004 0 0 -2
4763 794 9 0 109.44454945094276 152.63641365128746 129.38895453703432 0 0 -1
5946 991 14 0 117.21285909879818 143.28581094619364 124.56787040312412 0 0 1
1882 314 14 0 111.54182323640016 147.50755634630025 114.22581331165092 0 1 -1
4761 794 6 0 110.92744921543685 157.5009157030669 131.71568564114273 0 0 -1
4760 794 9 0 113.45262499423927 159.5884575250192 130.20339498790287 0 0 -1
1884 314 14 0 115.7014778241005 142.7144382992732 117.6236914877993 0 1 -1
4764 794 14 0 108.70650581431333 150.3813404265575 125.8789816874333 0 0 -1
4759 794 14 0 116.88861430035821 158.51259955669946 129.73152540550802 0 0 -1
1068 178 14 0 115.58456309226766 150.48568452504924 121.61258241168181 0 0 1
3036 506 14 0 99.02799525112334 140.38925122195374 123.68399906629907 0 0 1
3034 506 14 0 100.71161903404017 141.35549248316886 130.22664913975396 0 0 1
3035 506 9 0 100.67072626843618 139.28372771307858 126.71484576129579 0 0 1
1202 201 9 0 117.41670693273211 152.50157683379672 134.74612137636518 0 0 -2
1065 178 6 0 115.81577460604467 159.92374941596637 121.04489870659687 0 0 1
1881 314 6 0 108.91587505705347 149.5468454783269 116.44564095250358 0 1 -1
70 12 14 0 115.55153719764621 147.57701784549914 108.7517898287704 0 0 0
5486 915 9 0 113.9789428143232 154.29939284227137 113.48631503908747 0 0 1
68 12 9 0 109.0532128246025 152.05782326694694 108.71544290700375 0 0 0
5487 915 6 0 114.61659525496898 156.46084435002103 110.0625368140911 0 0 1
1063 178 14 0 112.19147521446348 156.1161606261965 124.22751325156607 0 0 1
69 12 6 0 111.98910591595295 149.50024429521662 108.49806368488807 0 0 0
4372 729 14 0 104.98565310759753 150.1608903027102 134.73332171874586 0 0 1
1879 314 14 0 109.29500676049724 156.39447741567596 118.13540073767419 0 1 -1
1563 261 6 0 120.17290263476943 138.13103815352366 112.51026091582148 0 0 1
4953 826 6 0 121.48677778097228 138.92284219713065 127.42653382283295 0 -1 0
4954 826 14 0 121.43357609162467 135.43298055828384 129.13717210154243 0 -1 0
3739 624 14 0 121.86519501318023 157.6837979246423 108.6886696496617 0 -2 -1
4309 719 14 0 136.04181288240795 142.40405768216507 132.2080629000284 0 0 0
4632 772 14 0 135.29669412718354 138.12162201574745 127.3319509145582 -1 -3 6
3741 624 6 0 128.34320153079602 155.35130173873742 109.16428039275382 0 -2 -1
5485 915 14 0 117.9340084031679 153.37286643490523 113.5832991272012 0 0 1
5945 991 9 0 118.11561555880844 145.95004180670452 126.72107486647738 0 0 1
4951 826 14 0 125.08310981230204 144.7135459655269 128.23335721938693 0 -1 0
4952 826 9 0 123.25677476683177 141.90163475875917 128.9732706024547 0 -1 0
844 141 14 0 117.93696936977304 135.31256877902624 119.75163525452437 0 -1 -1
1564 261 14 0 122.5956807948811 139.8928115720703 114.8179882326607 0 0 1
1565 261 9 0 124.4208904312912 140.4067043000331 118.00355793124814 0 0 1
1566 261 14 0 123.08845873201624 141.29626178233713 121.58308384926116 0 0 1
5836 973 14 0 133.16461156377363 156.91088950867285 127.97466036452988 0 0 0
1066 178 14 0 118.4299361227506 157.18648238219032 120.7115171232155 0 0 1
5941 991 14 0 126.68147477682105 151.7317207967901 128.28716901787334 0 0 1
3426 571 14 0 122.002564880108 146.87060670157305 117.05776441261936 0 1 1
3425 571 9 0 124.05542307293642 147.10862844212065 113.97042777280424 0 1 1
5944 991 14 0 119.21134068252829 149.6726766550472 126.95703753684114 0 0 1
5942 991 9 0 123.76821827785638 153.7974750592503 129.85725514147984 0 0 1
4286 715 9 0 129.7366071994485 140.33522687702438 112.332621197731 0 0 1
4287 715 6 0 128.41809739393273 136.91952281538622 113.7087327598001 0 0 1
5943 991 6 0 120.93011446928308 153.13458314934115 126.7637583890672 0 0 1
366 61 14 0 131.38617821425532 157.7033759499955 119.56868197606013 0 -1 0
2608 435 14 0 131.53065711859477 143.2938842683137 126.56564877828255 0 0 0
3743 624 9 0 135.53544002479262 157.6844469122569 110.45880027435825 0 -2 -1
3442 574 14 0 132.1965348305862 147.290282896223 115.48841825792226 0 0 1
3443 574 9 0 131.54205794394133 148.33082334468222 111.60949746357238 0 0 1
3444 574 14 0 130.2093205389735 149.68098598476442 108.3407023668468 0 0 1
4859 810 9 0 127.48397211015437 136.49071356676 124.91596136011309 0 -1 0
4858 810 14 0 128.45136734269215 137.3461703664672 128.334378578766 0 -1 0
4857 810 6 0 128.75006834597713 139.16157651834558 131.93880519353917 0 -1 0
3441 574 6 0 131.55457605297173 148.97830990472391 118.85454972395262 0 0 1
4856 810 9 0 129.19002406707878 143.0633506509695 133.08563944281326 0 -1 0
3440 574 9 0 128.2954357706924 148.06242773405106 120.57837680061431 0 0 1
3439 574 14 0 125.24645758214277 149.55653878436195 122.12447748053245 0 0 1
2607 435 6 0 130.00792254020158 141.90189566870802 123.2422621464962 0 0 0
361 61 14 0 127.31968581417564 153.86425112500203 115.23743305841015 0 -1 0
365 61 9 0 128.85278797419562 158.4418771087592 122.15539965318871 0 -1 0
1067 178 9 0 117.95187512606333 153.21770802061434 120.9349090990038 0 0 1
2606 435 9 0 131.13900162911477 141.87582522276276 119.65558402625116 0 0 0
2605 435 14 0 134.62022028317938 141.5444842752791 118.66404991083064 0 0 0
4285 715 14 0 129.8734621307559 142.26494444309293 109.07585752811893 0 0 1
2610 435 14 0 133.27281053562172 150.50958992544147 125.43635831008628 0 0 0
2609 435 9 0 132.3867880480536 147.0011238387065 126.56524998073998 0 0 0
4860 810 14 0 126.50051571766835 135.44366205018912 121.39614310132066 0 -1 0
546 91 14 0 133.31966742838688 151.27220497797583 132.1242884519735 0 0 0
5837 973 9 0 130.25658381482265 158.3904128448634 130.00368476605567 0 0 0
363 61 6 0 124.37168716706417 154.99982923239185 120.64543529087317 0 -1 0
364 61 14 0 125.85917077360389 156.72359618657413 123.95805435076846 0 -1 0
362 61 9 0 123.94365402296312 154.511672187667 116.73457139573134 0 -1 0
545 91 9 0 136.79008714039054 152.79568396333238 133.71691651755202 0 0 0
3424 571 14 0 123.92783099485605 146.40116610574023 109.9284305295921 0 1 1
3742 624 14 0 131.97570328216975 156.80682114524765 108.65288677973585 0 -2 -1
5835 973 6 0 134.5856861815634 159.06461213144192 125.04112346112048 0 0 0
3952 659 14 0 112.6885290614016 110.492135386528 136.34793158628096 0 1 0
3337 557 14 0 105.99571280038352 126.00711155658706 156.08928735054752 0 -1 1
3339 557 6 0 112.56103057438048 126.76449478226495 159.50257220958215 0 -1 1
5785 965 14 0 113.66062737882265 109.66999580048223 151.42925909834094 0 -1 0
3951 659 6 0 113.2113494041173 112.13179348699889 140.03124938400865 0 1 0
3007 502 14 0 115.75302566858002 125.94403360716126 138.12444647991452 0 1 -1
3171 529 6 0 104.38509696656048 133.19722301661952 136.1858080447905 0 1 0
3008 502 9 0 117.1506947633549 123.70989537908488 135.4280562596378 0 1 -1
4513 753 14 0 117.33995944638437 121.83390828435398 159.3621204771209 0 0 -1
3170 529 9 0 100.86162783005808 132.22923418022546 136.9287287129073 0 1 0
3169 529 14 0 99.89969109569913 128.41958816414433 136.6962604499827 0 1 0
3950 659 9 0 115.55664988578431 110.3396539062781 142.64122427814902 0 1 0
3338 557 9 0 109.65710431908236 125.10810385047421 157.47774860693326 0 -1 1
5593 933 14 0 113.56230602185602 130.3505598013549 154.6040333086252 0 0 0
5597 933 9 0 114.60215628527133 133.5837083284862 145.0710232798279 0 0 0
5594 933 9 0 111.31481562185377 133.19659060378018 153.41082787656205 0 0 0
5596 933 14 0 110.8668466208341 133.64950072220657 146.47615044098413 0 0 0
3322 554 14 0 119.38431505481705 132.14923420641685 135.43678301512966 0 0 -1
3012 502 14 0 125.91026007969457 115.17777732851339 135.97568653336458 0 1 -1
1028 172 9 0 135.97224686736146 113.09381192674036 154.03567565358776 0 2 -1
1263 211 6 0 137.16594486433326 118.96918099564046 156.84202976194285 0 1 0
1032 172 14 0 127.57340350029533 110.47714470040907 146.55857046816234 0 2 -1
3341 557 9 0 119.14828500050021 128.55745584785467 161.39383952771504 0 -1 1
3342 557 14 0 122.24287112062638 127.72367647874582 159.25844579164456 0 -1 1
4514 753 9 0 120.5693109592505 119.52569947883924 159.78354965191969 0 0 -1
2476 413 14 0 124.47401117613238 108.61779531138268 138.42938296396648 0 0 1
1029 172 6 0 132.78867900151772 111.89001207750879 151.90933239669744 0 2 -1
4999 834 14 0 135.4575842778489 113.66785742628934 145.63549568163205 0 1 1
3323 554 9 0 120.06605653624501 131.77990304908593 139.11562580125747 0 0 -1
3324 554 14 0 120.66975062322553 128.74000413521836 141.42081805521534 0 0 -1
140 24 9 0 127.99117706359 131.72360539101695 149.42958986380444 0 0 0
1031 172 9 0 128.28682837590532 113.64317327035273 148.4567482425786 0 2 -1
2974 496 14 0 125.05249292877357 122.2329956684354 150.79170717948006 0 1 1
2976 496 14 0 127.27127956542945 118.63693909163815 156.69871389741115 0 1 1
1266 211 14 0 131.60749994239313 120.98925112148211 148.12875669874433 0 1 0
4816 803 14 0 123.24694521941748 113.20619594542671 155.04062400626964 0 0 1
2177 363 9 0 134.77383632344552 129.33609308486047 147.73855995548354 0 1 0
144 24 14 0 134.67716035675522 130.09805967283882 157.865411721154 0 0 0
1264 211 14 0 134.72955297469397 120.89300178944445 154.76219297927838 0 1 0
3009 502 6 0 119.81081933332791 120.62165884313582 136.28244480185174 0 1 -1
3011 502 9 0 126.11187548070531 119.02678171186614 135.59057103267867 0 1 -1
3010 502 14 0 123.15793695125514 121.3718021936502 135.073939118647 0 1 -1
2971 496 14 0 118.12004791084813 125.37895233678302 148.2823029797733 0 1 1
2975 496 9 0 125.96618735613369 120.1941512313673 153.66622658345352 0 1 1
4814 803 9 0 128.91038460269783 110.2764019899669 159.04718519245316 0 0 1
2972 496 9 0 120.09922763249129 126.57871377939232 151.41057067102724 0 1 1
2474 413 9 0 122.99280864888249 114.49066662578277 142.31080889501803 0 0 1
2174 363 9 0 127.16270029560681 125.68949273746402 143.25662345555506 0 1 0
2175 363 6 0 131.02741284584013 125.78752878713695 142.6132768990681 0 1 0
2473 413 14 0 121.2951218436795 118.04521875541941 143.4007125831702 0 0 1
2173 363 14 0 125.30837929394794 124.31176830402624 140.48890610767145 0 1 0
4080 680 14 0 130.09678347671587 131.5583043822812 139.5997729967074 0 0 1
2477 413 9 0 127.72814084928257 108.7651901618767 136.83349349320687 0 0 1
2475 413 6 0 124.52431608478061 111.18550426020069 141.20345073560614 0 0 1
2176 363 14 0 133.51628015178343 127.96944019257337 144.49808266155998 0 1 0
4077 680 6 0 131.92140996169803 122.77759346960158 138.90159477043508 0 0 1
4078 680 14 0 130.96559097997726 124.99489400261729 136.293584804455 0 0 1
4079 680 9 0 130.0324413537691 128.65036675049134 137.59918544532422 0 0 1
4818 803 14 0 120.13107530770675 113.184017935037 149.05517751830237 0 0 1
4817 803 9 0 119.67689237216497 113.35986005841163 152.86433938743588 0 0 1
1265 211 9 0 132.7673424024782 120.07099479687999 151.68456452818626 0 1 0
4076 680 9 0 130.78755867699493 119.86284593118044 141.49644771911213 0 0 1
4075 680 14 0 130.49618667921803 116.23225200671872 141.76348690136516 0 0 1
2973 496 6 0 124.01472619358363 125.86777660841888 151.57175335994393 0 1 1
1030 172 14 0 129.2365992870361 113.78659676639576 152.29230545680818 0 2 -1
141 24 6 0 128.2209438615951 129.84101264737052 152.46506253634766 0 0 0
143 24 9 0 132.08357231355026 127.58439129360963 156.4259062501701 0 0 0
4815 803 6 0 125.66213084824662 111.85423449978681 157.7541312687066 0 0 1
1588 265 14 0 118.73389065953153 108.16799529176029 158.47504471036936 0 1 0
4813 803 14 0 132.49359647333767 110.0945805356674 159.94957822445159 0 0 1
139 24 14 0 124.87471743658114 132.20917568288147 146.88303037655035 0 0 0
142 24 14 0 128.34611774480967 128.3776625084375 155.96295833496373 0 0 0
2178 363 14 0 136.2392796449918 131.2279470683186 150.7635464401685 0 1 0
4968 828 14 0 135.64856209586023 108.72109591294101 141.4925286458403 0 1 1
5227 872 14 0 98.06586347392135 158.30510995047499 137.53379017851213 0 0 0
3174 529 14 0 112.16321047926444 138.74813524284224 136.23686729481196 0 1 0
3173 529 9 0 109.35839666678599 137.68478207389194 138.632069255695 0 1 0
4369 729 14 0 104.80953983258209 156.9741505000139 142.65755810724286 0 0 1
1201 201 14 0 117.14015689665486 150.40944685336711 137.7071853921474 0 0 -2
3172 529 14 0 107.30695243535898 134.32006732607334 138.3572259567867 0 1 0
2068 345 14 0 111.61834486512232 158.18503253216778 146.3130730408312 0 1 0
2470 412 14 0 117.49654388659863 155.97291237541623 143.3419470238167 0 -1 1
61 11 14 0 100.27742702743205 154.23943913292703 155.05526625890124 0 0 -1
2069 345 9 0 109.30531162231591 155.93390985537067 148.43172381873887 0 1 0
4371 729 6 0 104.24625754317255 152.89853428413386 136.8211307572125 0 0 1
4370 729 9 0 105.30085237015503 155.60469676046662 139.11330672010538 0 0 1
1410 235 14 0 111.86484886485209 155.22751925322046 139.43280387638666 0 0 0
1409 235 9 0 111.72538308260755 152.6541374852056 141.99018547494236 0 0 0
5183 864 9 0 117.76294977739987 159.25483550788798 159.36140317694074 0 0 0
2070 345 14 0 110.26952221691623 153.6394984110473 151.4080646019885 0 1 0
2356 393 14 0 117.51107438373313 139.36537884234326 141.20121036462 0 1 -1
5182 864 14 0 116.0753595052946 156.2355593397882 160.64730000200623 0 0 0
5181 864 6 0 113.57859012985263 154.18726834327802 158.41864827700016 0 0 0
5598 933 14 0 117.32335591180139 135.90308932952973 147.10157188532222 0 0 0
4374 729 14 0 110.01034209498883 146.36817074660993 138.69632305308292 0 0 1
4373 729 9 0 107.28344178605694 147.48236086243077 136.54632482043377 0 0 1
62 11 9 0 101.58646169434468 151.5848476227556 152.8476103782122 0 0 -1
5595 933 6 0 110.72988778784779 134.9545833190821 150.2046401125433 0 0 0
63 11 6 0 101.81698475444274 151.64909989904444 148.78378460233378 0 0 -1
5180 864 9 0 112.67271873526076 150.4806117484686 157.376975770367 0 0 0
1405 235 14 0 106.16196734107594 145.95748030661116 151.69734271437457 0 0 0
1406 235 9 0 110.13585014557047 146.31821116730333 151.2866219532501 0 0 0
1407 235 6 0 110.9706124664366 148.03601395013482 147.8815577111887 0 0 0
1408 235 14 0 110.38839273817779 149.88397797458455 144.43554026226158 0 0 0
64 11 14 0 104.52664787990166 150.11962683568973 146.93391484421798 0 0 -1
65 11 9 0 103.70077959290127 147.38379670860124 144.5293138439729 0 0 -1
66 11 14 0 103.63390179905804 144.33366158028193 142.06700205510785 0 0 -1
5179 864 14 0 109.23800705466553 149.67814201948374 159.1802273409014 0 0 0
2358 393 14 0 111.4843590514122 141.90028970229656 143.138755458825 0 1 -1
2357 393 9 0 115.43311398513353 141.34043562573748 143.73339903470753 0 1 -1
2472 412 14 0 117.07676299195724 151.05561606850236 148.39836653521022 0 -1 1
5964 994 14 0 116.25627016708845 142.87305153697056 150.74044602889427 0 1 0
5963 994 9 0 116.93491511208909 144.94569893375163 153.79869360182778 0 1 0
2468 412 9 0 116.59756732079052 159.34756729295148 137.18175684027372 0 -1 1
2303 384 9 0 114.1144226587461 159.5689001245978 152.51587801286016 0 2 0
2188 365 14 0 128.6696616975524 158.10339443098457 149.26019120090004 0 0 1
2112 352 14 0 131.42443984269008 149.19636642141748 159.65997134660338 0 0 -1
1093 183 14 0 124.59472016892701 144.4461959420322 150.4654142816646 0 1 0
3254 543 9 0 134.1203673218397 136.82841357121285 135.31425690044588 0 -1 0
1097 183 9 0 121.85996404465226 143.44914472300832 142.9178043657873 0 1 0
2354 393 9 0 122.98246737713991 138.03490393903988 135.950995425579 0 1 -1
4855 810 14 0 126.0373650524083 144.77751284235043 135.06698172859834 0 -1 0
3050 509 9 0 136.13325888297194 141.24164720323705 158.8605045884959 0 0 1
3878 647 9 0 130.74175736701292 155.36837462736239 141.6743511233572 0 -1 0
3255 543 6 0 132.94271743194653 138.49884991014775 138.65315757904563 0 -1 0
4524 754 14 0 120.53732007300228 135.45066120550416 154.45676977586746 0 0 -1
2190 365 14 0 129.77991379007295 158.22656928202517 156.1001706642569 0 0 1
1098 183 14 0 120.15725509054523 146.48811288654588 143.45682965760344 0 1 0
175 30 14 0 131.02350385815654 134.7998054852837 154.8573735455085 0 -1 0
2471 412 9 0 118.03513544644721 154.44742061053753 146.7596524295628 0 -1 1
3469 579 14 0 123.35458710950053 153.3048247786151 158.88569189931295 0 -1 0
1507 252 14 0 124.73625089518032 150.31193863505584 145.9599247402266 0 0 0
1639 274 14 0 133.17018772359003 145.5490377224284 154.09430146136376 0 1 0
3530 589 9 0 122.87248855327331 153.58236407008067 139.5342242060793 0 0 0
3532 589 14 0 128.32700017025596 148.85002127285472 140.11398944309892 0 0 0
1641 274 6 0 136.84469054810145 145.04069868429303 148.42097706235685 0 1 0
3881 647 9 0 130.90716753798927 147.31925779462165 146.78285463871046 0 -1 0
3534 589 14 0 134.72498703355117 146.68736347792887 137.38934813358492 0 0 0
3529 589 14 0 123.4962381162738 156.52448397848983 137.23735909263016 0 0 0
2353 393 14 0 126.22175800022522 137.22278016210723 137.48649203675004 0 1 -1
2189 365 9 0 128.83307880301595 159.9472122111031 153.02516405869227 0 0 1
3533 589 9 0 131.93195070225028 149.08367529468853 139.01299001437727 0 0 0
3531 589 6 0 124.70337110201248 149.7915209407982 139.98422339927689 0 0 0
3257 543 9 0 132.8815276045548 136.9298938447735 145.9196160186644 0 -1 0
1640 274 9 0 135.89759312620515 147.0638868764493 151.59445480416323 0 1 0
3258 543 14 0 130.91056050104203 138.54035009986762 148.60987133305164 0 -1 0
1509 252 6 0 128.25764680525467 152.7206508907903 152.19423517729874 0 0 0
1095 183 6 0 124.67153111192063 138.7417177908517 147.3805686164858 0 1 0
3879 647 6 0 129.82290068717597 153.6445357335729 145.0827404622108 0 -1 0
1094 183 9 0 123.98304927102002 140.5289989730429 150.74173538503476 0 1 0
5962 994 14 0 119.17610465510519 147.10162961149436 155.5718500183768 0 1 0
2469 412 6 0 117.9896318941197 158.98665292035702 140.92707621323714 0 -1 1
3880 647 14 0 132.18829651822543 150.70114467815216 146.20298151661123 0 -1 0
1510 252 14 0 132.14146115049556 152.81153426001396 152.4733099520193 0 0 0
3882 647 14 0 131.3826693135634 144.25126287250342 144.5338455727919 0 -1 0
1508 252 9 0 125.52195389684978 151.24560849711733 149.78247389791625 0 0 0
3877 647 14 0 131.63091323267201 159.00183285929086 141.56415033451876 0 -1 0
1096 183 14 0 124.19156171746059 140.35506346311234 143.7658130438195 0 1 0
3256 543 14 0 132.36121097970357 137.40117333724376 142.1242678571532 0 -1 0
178 30 14 0 125.11598256657747 141.61666651307345 158.15541685453 0 -1 0
5961 994 6 0 119.01954993625009 151.10163936436047 154.8070600817974 0 1 0
1511 252 9 0 134.86401510936085 154.93777569042317 151.3153551074857 0 0 0
2355 393 6 0 119.31173301827803 138.27004552157487 137.49139782813174 0 1 -1
5960 994 9 0 119.45162898508194 154.68847170816042 153.95630095363285 0 1 0
5959 994 14 0 121.631395852655 156.85680680774453 151.44701619060334 0 1 0
176 30 9 0 129.60387345631167 138.10152827651632 154.78335676719914 0 -1 0
4523 754 9 0 119.24013640472674 137.06146182893764 157.72587323273655 0 0 -1
4522 754 14 0 120.05705823812912 138.2590950249744 160.95748808144862 0 0 -1
177 30 6 0 126.58114118542588 138.4007315560926 156.60013429668345 0 -1 0
179 30 9 0 125.15736480938934 144.97823064725128 160.31582807842003 0 -1 0
5784 964 14 0 124.82494843775103 159.00329965023388 144.068475467672 0 0 2
3051 509 6 0 135.87337093377582 144.76590324861792 160.61843918615236 0 0 1
1035 173 6 0 157.92295176967048 121.82250989973046 115.27440163231525 0 1 -1
1033 173 14 0 150.90264288585615 121.21248468019888 114.42360452916101 0 1 -1
1036 173 14 0 161.26888434377355 121.2327098845887 117.11187106989918 0 1 -1
1037 173 9 0 160.41260412783336 118.66874003864325 119.69339580305613 0 1 -1
3283 548 14 0 153.81276776290412 114.79037366538473 127.59265281138123 0 0 1
3683 614 9 0 138.4920668923237 116.7724955558997 117.61489080994367 0 0 -1
4541 757 9 0 138.6852385314953 127.36060648624712 116.95085613705419 0 0 1
3284 548 9 0 155.6990584208433 112.25031423514415 125.75407928591841 0 0 1
4542 757 14 0 141.36467771551227 125.08447660184643 119.17630972666328 0 0 1
4870 812 14 0 155.97910832258242 115.37662380366326 111.63827120113173 0 0 1
3847 642 14 0 148.26152504951742 116.22800431618205 110.6315127495484 0 0 2
1166 195 9 0 137.5259516687824 121.41446369622776 132.61861481113553 0 0 0
1740 290 14 0 151.43024322922594 131.8800436827668 113.02732196136574 0 2 0
1038 173 14 0 156.81088015183056 116.90370109424171 119.72361447963449 0 1 -1
1739 290 9 0 149.36686954245602 132.86639620422673 115.7196960473774 0 2 0
4320 720 14 0 151.38636808257812 128.87382356078894 125.08568814563549 0 0 1
4539 757 6 0 138.36206870456851 122.19703539505481 111.89218868052234 0 0 1
4871 812 9 0 159.93597322381152 115.59582259038648 112.43269316073821 0 0 1
3682 614 14 0 141.60680757917171 114.85009195721325 116.89050905945965 0 0 -1
1034 173 9 0 154.14408674613117 122.81354083745461 113.80012178964472 0 1 -1
1338 223 14 0 141.74014008571882 128.28757307381602 109.19969108244307 0 1 0
4364 728 9 0 164.4727226934987 113.14992649881188 120.2745326195506 0 0 0
3848 642 9 0 147.98929977535542 112.40827468475541 111.67622429887405 0 0 2
3308 552 9 0 147.67719949813187 121.79862606804322 121.98982563444804 0 -1 -2
3307 552 14 0 151.3975508945641 122.8811635204853 121.27933748027935 0 -1 -2