LAMMPS data file via write_data, version 23 Jun 2022, timestep = 40050000

4374 atoms
40 atom types
3645 bonds
1 bond types

-286 286 xlo xhi
97.63656261143251 190.36343738857002 ylo yhi
97.63656261143251 190.36343738857002 zlo zhi

Masses

1 131.199997
2 57.049999
3 128.199997
4 101.099998
5 156.199997
6 71.08000199999999
7 115.099998
8 129.100006
9 163.199997
10 99.06999999999999
11 113.199997
12 128.100006
13 186.199997
14 147.199997
15 87.08000199999999
16 137.100006
17 114.099998
18 97.120003
19 103.099998
20 113.199997
21 131.199997
22 57.049999
23 128.199997
24 101.099998
25 156.199997
26 71.08000199999999
27 115.099998
28 129.100006
29 163.199997
30 99.06999999999999
31 113.199997
32 128.100006
33 186.199997
34 147.199997
35 87.08000199999999
36 137.100006
37 114.099998
38 97.120003
39 103.099998
40 113.199997

Atoms # full

3045 508 13 0 92.22300034862737 115.28838637200325 97.92324752034777 0 7 -17
3044 508 14 0 93.14403370014472 115.4909462564371 101.40625451347577 0 7 -17
1788 298 15 0 108.48885375244987 108.92968091939437 111.15074478307899 -2 4 -4
1787 298 14 0 109.77194575012444 107.23524382429723 107.96146874908608 -2 4 -4
1785 298 13 0 110.51746575365343 110.78878885054553 102.1480983645967 -2 4 -4
1786 298 6 0 109.22593182681476 108.53866876404182 104.73441079937537 -2 4 -4
3043 508 17 0 94.90042386567957 116.87090829934279 104.41730611669585 0 7 -17
2083 348 17 0 109.6116972584316 101.44834836526238 102.53864260958687 -1 3 -3
3236 540 14 0 125.15518526250925 108.66521396734323 98.00346117821047 -1 0 3
3238 540 6 0 130.20988166656775 109.66827941363164 103.52416437707956 -1 0 3
2088 348 15 0 119.94743080316712 101.22844295069893 105.72234189080952 -1 3 -3
2087 348 14 0 122.02750069048118 101.49253383018444 102.9027563884611 -1 3 -3
2086 348 6 0 120.15372371285265 100.95145590658149 99.67808994295049 -1 3 -3
3237 540 13 0 127.03647086154425 108.08522172190705 101.64210417019687 -1 0 3
2085 348 13 0 116.64789419703126 99.33143681834935 99.72457655697481 -1 3 -3
856 143 6 0 130.54648919692065 103.89422163184624 106.70599798437198 -1 15 -1
2084 348 14 0 112.68973798421271 99.9193434989429 100.61789219241604 -1 3 -3
1627 272 17 0 129.46755732880794 105.64729300450797 113.89048563000732 0 14 -24
2436 406 15 0 117.76536753444758 116.69533826107914 98.65851744025858 1 -22 10
2484 414 15 0 123.29389533102199 102.2096023294985 109.68285723978308 0 4 -4
1628 272 14 0 129.35528647513863 102.07824706838761 113.7410385499533 0 14 -24
1784 298 14 0 113.45730909072672 111.24103845708835 99.41250817559678 -2 4 -4
3165 528 13 0 129.4281090818163 116.49780680749666 98.88224677740524 0 -5 6
1629 272 13 0 130.25370411058591 98.53840130683562 112.15956463709617 0 14 -24
2483 414 14 0 123.76837604539172 98.11787715356678 109.03568966483536 0 4 -4
1671 279 13 0 142.67314997040387 99.1638025873761 100.14869209224895 -2 -4 -6
3239 540 14 0 133.42562406116977 111.713829194969 102.52974017820517 -1 0 3
2528 422 14 0 138.50811759216148 117.2602253831896 115.87199974942286 1 8 21
2529 422 13 0 136.48628506639707 119.41412035786063 118.04950582168358 1 8 21
3240 540 15 0 135.89426013078938 112.75597241442313 105.36461480973995 -1 0 3
2527 422 17 0 138.03907613035543 113.68888285802484 114.43411547997296 1 8 21
855 143 13 0 131.15218651983233 100.95096296733436 104.78157630723817 -1 15 -1
1669 279 17 0 138.48278007436764 101.44678676295727 104.39663232679706 -2 -4 -6
1733 289 14 0 135.90822565878173 98.08306057746687 98.2534651837164 -1 9 -4
3592 599 6 0 142.73389517052908 107.55001590926146 98.97884803368144 1 -14 -3
3334 556 6 0 140.81294363596882 97.98057909940364 110.73335590493168 0 4 -15
3593 599 14 0 145.92008164608353 108.48619335018422 100.59051779013737 1 -14 -3
1239 207 13 0 144.4290297788325 118.14041516011697 110.01068365166022 -1 0 -22
1240 207 6 0 146.51090166098254 119.28060036443625 112.93930802935942 -1 0 -22
857 143 14 0 132.08125348686448 106.71245825303896 108.86997814024913 -1 15 -1
858 143 15 0 135.61827141065623 106.23220959368403 109.91474470194436 -1 15 -1
3333 556 13 0 143.5012216983462 100.28873836634091 112.77341397384238 0 4 -15
1734 289 15 0 133.2419896946192 100.90590121241364 98.70140246019855 -1 9 -4
3594 599 15 0 144.78500141111306 112.12137946875401 101.8857310645092 1 -14 -3
3332 556 14 0 145.17205761450634 101.94730558742292 109.78818268048869 0 4 -15
3331 556 17 0 146.55794867332676 105.6473151000859 109.04368219670837 0 4 -15
1237 207 17 0 137.56540873270194 117.51740315236668 108.5581094407199 -1 0 -22
1238 207 14 0 141.06849344420928 119.13063404872098 109.29010161910195 -1 0 -22
3166 528 6 0 131.82192542012407 118.07993593725493 101.30450625650445 0 -5 6
534 89 15 0 132.42515601598947 103.51860467541877 119.52226866196989 -2 0 -28
533 89 14 0 133.29392977664475 101.1879840062905 122.0711416809058 -2 0 -28
3167 528 14 0 135.1095354640419 118.70937347824935 102.76057746940914 0 -5 6
1670 279 14 0 142.19093393937058 99.73788646541647 104.06013623495515 -2 -4 -6
927 155 13 0 150.09528842309962 100.14370130870141 115.81928617198578 1 17 9
2595 433 13 0 150.2166920423266 99.67691856420018 104.70255313617362 0 -14 -14
2432 406 14 0 117.83921520907985 126.76035212811243 105.37367197036275 1 -22 10
2431 406 17 0 117.95897683296656 129.54980661568877 108.32975877549822 1 -22 10
1697 283 14 0 124.74909914129083 122.4557905857614 117.45694381471077 -1 -10 -3
1696 283 6 0 128.0290513062219 124.35809935509305 116.95866288364053 -1 -10 -3
2433 406 13 0 116.39563181693067 124.63110404816267 102.61623321506853 1 -22 10
1698 283 15 0 121.06366946074743 123.45080182436517 117.98032752636384 -1 -10 -3
2532 422 15 0 130.19139224903623 120.89317643582845 121.63634835503463 1 8 21
4015 670 17 0 124.10234070952257 135.8594922965049 112.84193474412957 1 -4 5
3530 589 14 0 129.27279765483897 139.9140896201885 111.70827229099908 0 -3 -9
3531 589 13 0 129.93733478395825 142.45221928939642 114.73484658500651 0 -3 -9
3529 589 17 0 128.0655813870154 139.96569791092253 108.26054194512214 0 -3 -9
4017 670 13 0 127.70901084584098 130.86264107085375 110.0820552901013 1 -4 5
4016 670 14 0 125.9278634009887 132.72004748872033 112.94450288564649 1 -4 5
4018 670 6 0 125.40916679478707 128.81182450639108 107.60621661648787 1 -4 5
4019 670 14 0 124.23680664550514 129.77360043094006 104.25509239422973 1 -4 5
3282 547 15 0 126.8933171412469 136.86497998631677 117.53511236943552 1 7 6
3281 547 14 0 127.88888016853424 134.40722335469016 120.35040621289882 1 7 6
2434 406 6 0 117.76129232433726 121.99259485927658 100.32523224747054 1 -22 10
3378 563 15 0 129.2965598351749 125.14119367871989 103.1705380546789 0 5 -4
4020 670 15 0 122.65423942217116 129.8151486345153 100.76967134062038 1 -4 5
3377 563 14 0 128.08422418573755 124.03377707077433 99.6570926539459 0 5 -4
2530 422 6 0 135.10988860367374 122.27868251257661 120.5428806341443 1 8 21
1241 207 14 0 146.34471747149092 121.2888397624964 116.11182928843841 -1 0 -22
536 90 14 0 142.99239245652151 142.57139675756278 112.8773845632524 1 -6 -7
2207 368 14 0 134.29154733945333 136.0288641137396 106.21606907306729 2 -13 -6
2206 368 6 0 135.91160217931235 133.01671259494427 107.50293090709233 2 -13 -6
1695 283 13 0 131.34968451742472 125.0333549441721 115.5749594991556 -1 -10 -3
1694 283 14 0 132.48498578307215 124.67068014425597 112.15458205306398 -1 -10 -3
76 13 6 0 146.0175055656672 126.62885456347084 104.46323514822663 1 -21 -14
1242 207 15 0 145.3125841327428 124.9341221817152 114.84839433534184 -1 0 -22
538 90 6 0 149.02875236540834 140.41449769232617 116.43401703730261 1 -6 -7
537 90 13 0 146.3307656412752 141.7579233048395 114.05413841609152 1 -6 -7
2208 368 15 0 137.1674323657683 138.11891849323615 106.9410105913843 2 -13 -6
2203 368 17 0 143.20759699659132 135.7217843203922 113.60111052026691 2 -13 -6
2205 368 13 0 137.3735425740456 131.82903344622 110.7525876393802 2 -13 -6
4212 702 15 0 139.56045317098963 124.57757404032256 112.58278543969212 0 6 2
2204 368 14 0 140.42726777517882 133.77417431380658 111.83360192113592 2 -13 -6
4208 702 14 0 141.33176873301872 133.6622550150313 121.08951380766547 0 6 2
4211 702 14 0 139.49409595051787 126.36778989994663 116.06943656072396 0 6 2
4210 702 6 0 142.8176962114838 128.73690624578452 116.64226185066218 0 6 2
4065 678 13 0 137.0860957674448 138.29012764012967 116.84760181144314 -1 -1 -1
4209 702 13 0 143.49659802241354 131.19848902933515 119.65117939116234 0 6 2
4064 678 14 0 136.19171357949867 139.07573387713208 113.28250184932928 -1 -1 -1
1693 283 17 0 134.33049513521235 124.4008048457355 108.52180993686444 -1 -10 -3
2712 452 15 0 142.22710250804724 137.90969363608025 102.56854501456633 -2 6 3
77 13 14 0 142.64886167761276 126.33509646831084 106.33854333533296 1 -21 -14
78 13 15 0 143.5542483568414 127.79010129874816 109.54979550251366 1 -21 -14
2710 452 6 0 149.257834680187 137.52265650722327 102.26005091179702 -2 6 3
4066 678 6 0 133.3754293418389 138.62433397975306 118.26263778036696 -1 -1 -1
4067 678 14 0 131.90340967916973 140.04637521205538 121.72336452327033 -1 -1 -1
2711 452 14 0 145.852457796325 136.60973503556582 104.10489146229878 -2 6 3
4368 728 15 0 146.0621699137441 121.43448511190775 105.08078315324423 1 5 -4
2721 454 13 0 135.87140406444288 128.7696382649793 121.72426347809237 1 10 -3
1770 295 15 0 141.85803477189597 130.15335554798247 99.76750780439421 -1 28 -17
2719 454 17 0 133.2653519737659 132.92495480460633 116.7549415457296 1 10 -3
2720 454 14 0 134.52625876491035 130.27173696682055 118.61815145342032 1 10 -3
2586 431 15 0 140.6014608011337 142.94407075539482 120.06790319835474 0 8 10
2508 418 15 0 131.70234475640962 138.8398039573069 98.06746376008981 1 -26 10
75 13 13 0 148.56173365422524 128.44242053888962 102.37701028994769 1 -21 -14
210 35 15 0 149.17929316098434 139.93485478759874 108.8502770161919 -3 14 1
4063 678 17 0 135.96800196329832 142.3056583198874 111.49542037139284 -1 -1 -1
3168 528 15 0 134.61010918129864 122.61168694872923 102.05776703076265 0 -5 6
4367 728 14 0 146.1016718424667 121.30516446155504 101.10677424274232 1 5 -4
3679 614 17 0 150.39399517363898 123.71848040410785 108.5648286716926 -2 16 10
4366 728 6 0 149.6831257061607 121.38788556799994 99.0578589615136 1 5 -4
3680 614 14 0 149.96868151666553 126.71550194175548 110.83262249512288 -2 16 10
420 70 15 0 134.33934534016373 143.42880754134995 103.62979911704369 2 4 12
4206 701 15 0 129.15478819473023 104.59319549042009 145.31018750584212 1 13 -1
2850 475 15 0 125.16516779407002 109.49408360105464 136.1530825454641 2 -1 -10
2849 475 14 0 127.83222255904637 107.86935705326944 133.27782320038128 2 -1 -10
2848 475 6 0 130.0773895941969 110.77910235187927 133.30889682845182 2 -1 -10
2846 475 14 0 130.18340557594846 115.38811634494685 129.8267969127587 2 -1 -10
2845 475 17 0 128.53636865538195 114.76270712565551 127.09939597551106 2 -1 -10
2847 475 13 0 130.20741947447257 115.04417688525662 133.85758816894236 2 -1 -10
1140 190 15 0 123.2819430514353 119.01124586385517 136.7232975321163 -1 15 12
1139 190 14 0 125.34392352110456 120.31976862417933 133.69636543770648 -1 15 12
609 102 13 0 146.759829780034 105.79738212360395 142.46877338541393 1 11 -5
4373 729 14 0 141.99040653763245 112.6977023316191 124.399952883341 -1 27 5
4374 729 15 0 138.3231823960439 111.46272206610246 123.91022488377848 -1 27 5
1089 182 13 0 146.88213771801023 103.39925629690632 128.43538247414543 2 4 14
4372 729 6 0 145.54163275144376 111.34760258757926 123.14946006555488 -1 27 5
3132 522 15 0 134.33093352864765 104.47383327493552 131.09185564887113 2 13 0
531 89 13 0 138.49926378784792 100.06082580621002 126.25103004028396 -2 0 -28
611 102 14 0 145.72313759675978 111.12284930658626 137.67052035202883 1 11 -5
3128 522 14 0 131.4324107946218 98.82650527477182 141.5053192535752 2 13 0
2782 464 6 0 147.14138657323565 117.35591838085527 144.02818267809246 -1 7 -1
4204 701 6 0 135.1696044491592 104.94078014782258 146.08004300784657 1 13 -1
1090 182 6 0 145.55606830497106 106.7126002711898 128.41365316848447 2 4 14
1088 182 14 0 150.1555875116493 101.63250945025065 129.25942210251787 2 4 14
2781 464 13 0 149.31899221087562 114.96135825539848 142.2080791227861 -1 7 -1
2050 342 6 0 138.46317889121158 117.74750601960878 130.44758034944152 -1 7 -8
532 89 6 0 135.7996928040378 98.98122407393585 123.5970520468538 -2 0 -28
1605 268 13 0 145.78798856461603 119.2774088667692 128.55425022861294 -1 5 -10
4297 717 17 0 135.06316068014866 108.93149539147727 134.99153887435938 0 -6 16
608 102 14 0 144.47158282486166 103.16127360130929 141.2880193787379 1 11 -5
4302 717 15 0 140.55021974641082 118.87055418024458 142.43502149518991 0 -6 16
4301 717 14 0 142.8918802013351 116.9766634469577 139.70632891626005 0 -6 16
4300 717 6 0 140.94233942521177 113.3892911410509 139.6339642727617 0 -6 16
4298 717 14 0 138.25877844557283 107.89277824050205 136.72163902726902 0 -6 16
1221 204 13 0 144.26776171618712 111.17787237918505 146.4184781013593 -1 6 -15
1604 268 14 0 148.20840972985877 117.75038114829339 130.7882176156298 -1 5 -10
4299 717 13 0 139.64184340573118 109.94708131520467 139.5985867366685 0 -6 16
3131 522 14 0 136.219768440475 101.6024913562871 133.25507505150162 2 13 0
4202 701 14 0 138.33723723314793 100.24196813417922 143.48983513938842 1 13 -1
1091 182 14 0 144.13427685236405 109.77571419063602 129.89791743976372 2 4 14
2049 342 13 0 138.08985866050827 116.74021104014814 134.07607209370275 -1 7 -8
607 102 17 0 143.074238950392 101.51437665981557 138.40910834085534 1 11 -5
2048 342 14 0 136.01916749434918 116.63438530554501 137.3500308854985 -1 7 -8
3129 522 13 0 132.51050876955406 102.17520908658817 140.03283909823406 2 13 0
1092 182 15 0 140.65077806798098 110.38092835578814 131.83179475292718 2 4 14
3130 522 6 0 134.5594654453106 102.03210066346507 136.7726083901872 2 13 0
529 89 17 0 144.83334817428448 98.55491129098986 122.84175230584303 -2 0 -28
2819 470 14 0 149.28909245898356 99.49588159325538 136.9414459033832 0 -9 -4
4203 701 13 0 138.6091041624108 104.06808033909151 144.30907229528145 1 13 -1
4371 729 13 0 149.31373398872591 109.85824270072746 123.77396129739606 -1 27 5
530 89 14 0 141.446126085823 100.31205150282042 123.71362980588108 -2 0 -28
2047 342 17 0 134.25436120186774 118.85280469179096 139.87741098621353 -1 7 -8
610 102 6 0 147.23720464249033 108.54611821980949 139.98231098393455 1 11 -5
612 102 15 0 147.37569378585394 114.30275048088093 135.90816285897006 1 11 -5
2818 470 6 0 148.4609980674422 102.47028805896403 135.0053809504131 0 -9 -4
2783 464 14 0 146.30245436519272 119.98085206643027 146.2040235137509 -1 7 -1
1222 204 6 0 140.78174403006503 111.74372102676955 145.40171590502518 -1 6 -15
1223 204 14 0 137.40371942193747 113.73735425483596 145.49601273698082 -1 6 -15
1224 204 15 0 135.21024811591028 116.45661469814307 146.8849286148887 -1 6 -15
4071 679 13 0 129.0312007628171 138.04293250498205 144.1318963516958 0 6 18
167 28 14 0 130.14990917020057 126.36105708047386 146.51292147684228 2 -8 2
4069 679 17 0 124.01163706695249 133.3914803187334 145.55917711033956 0 6 18
86 15 14 0 120.64998061876372 142.0554798481286 145.56037413616838 -1 -8 12
450 75 15 0 125.80180908662476 141.91438685756674 134.80730995392992 -1 0 1
3279 547 13 0 123.91787790055358 137.3776157692036 125.9357674792571 1 7 6
3280 547 6 0 125.98202591303662 134.97371034204588 123.5588558837605 1 7 6
1086 181 15 0 128.5706134204455 133.92416321657862 128.37537445630932 2 -5 0
1137 190 13 0 128.52960329411013 123.67365589188117 128.01411906757406 -1 15 12
1138 190 6 0 127.52686933777082 121.29856418934351 131.13510910139175 -1 15 12
168 28 15 0 128.01834099594547 125.31553016592174 143.48671059259146 2 -8 2
448 75 6 0 127.44056630880621 142.76595814118798 140.09134909149446 -1 0 1
449 75 14 0 124.05956976935286 141.82929810269414 138.13643481742182 -1 0 1
1136 190 14 0 127.43699246078327 125.19535625946132 124.39453762361589 -1 15 12
1135 190 17 0 126.91310600775196 128.84297338322915 123.58275054632688 -1 15 12
3183 531 13 0 130.35480889288246 137.91325994726597 136.12812155615285 -2 -12 11
3071 512 14 0 121.8174315400249 124.99185651671682 139.54881988169302 -2 -3 -2
3072 512 15 0 121.43206666869722 126.752992945483 142.86048974981802 -2 -3 -2
89 15 14 0 116.78521673050513 133.50471469831015 145.816686385923 -1 -8 12
3068 512 14 0 121.11133678667343 126.66327709267715 128.61084368596562 -2 -3 -2
3070 512 6 0 120.70246347206543 124.65432017768475 135.89992003394 -2 -3 -2
3069 512 13 0 120.20811715555205 126.82587425656313 132.40650224382622 -2 -3 -2
3184 531 6 0 127.01863766769421 136.53076759761964 136.82849449225958 -2 -12 11
4146 691 15 0 120.39115032742646 134.31018056264807 131.50855818619374 1 13 13
4145 691 14 0 118.25640826538393 137.06502472654094 133.05099094912475 1 13 13
4144 691 6 0 117.71663796818518 140.7993085141609 133.93423746197712 1 13 13
3186 531 15 0 126.54703714652636 131.65149601292796 140.53491318043174 -2 -12 11
4070 679 14 0 127.29437401712507 135.50106431492142 146.1120147240886 0 6 18
2982 497 15 0 126.17080903658113 129.5595828931688 132.2912013977374 0 -14 5
3278 547 14 0 124.03223413843433 140.9255961769612 127.26007294963618 1 7 6
2981 497 14 0 127.82865335660979 128.58410389573228 135.54491040825405 0 -14 5
3067 512 17 0 121.41800473235722 123.45808276042197 126.15227047869105 -2 -3 -2
3185 531 14 0 124.56526183130974 134.2917118365586 138.586144134698 -2 -12 11
88 15 6 0 117.33304701432041 136.2831601771154 142.8732268409122 -1 -8 12
87 15 13 0 119.5399841363908 139.65256623852602 142.94058845066542 -1 -8 12
1940 324 14 0 145.46542147219802 143.00432273071812 136.72199707311708 -2 9 -1
4060 677 6 0 137.18382886242358 125.33090674454827 138.45437096599557 0 2 -9
4237 707 17 0 150.4369849144714 137.56753462434995 130.58483575617004 3 19 -5
2531 422 14 0 133.65942855703972 120.60936863247133 123.54059935512839 1 8 21
1943 324 14 0 148.73603134729015 140.27904824221633 144.1549575657985 -2 9 -1
4059 677 13 0 140.27653976188668 127.0221754274287 139.77771746784975 0 2 -9
2978 497 14 0 135.5454537993454 134.15393660263118 140.33521887009485 0 -14 5
1171 196 17 0 142.11294105599532 139.6676889419487 126.77116360024539 -1 5 9
1608 268 15 0 141.77356163429437 124.14764127661904 122.76915435895874 -1 5 -10
2325 388 13 0 150.4601951684273 123.31873195962628 140.59289922950578 0 6 -3
2324 388 14 0 147.66288710738556 125.92573516780868 139.68049318981474 0 6 -3
4220 704 14 0 138.69381595830677 123.72456225523509 145.83889519583084 1 15 -2
4239 707 13 0 146.69549213553066 134.90312682545127 136.47435136477256 3 19 -5
1172 196 14 0 139.62599850002962 142.59309142336758 126.91419546299207 -1 5 9
2723 454 14 0 141.7183544956844 128.66506317341063 125.94623423329368 1 10 -3
1939 324 17 0 143.61031424447418 142.7454493643797 133.2870649024363 -2 9 -1
2977 497 17 0 138.814914025037 136.04789685410242 141.9156601663806 0 -14 5
4207 702 17 0 138.78763539662228 135.64968494028315 123.27747002185939 0 6 2
2722 454 6 0 138.25033820311575 129.41364036783608 124.69355162492239 1 10 -3
4068 678 15 0 130.83756165690414 143.258113081682 123.28558466708569 -1 -1 -1
2051 342 14 0 138.99874091770278 121.2641650791394 129.2152426175896 -1 7 -8
1083 181 13 0 136.19577497580804 136.85407167210366 130.00113053229214 2 -5 0
2052 342 15 0 140.12132202157372 123.92934965216283 131.43703674079933 -1 7 -8
1607 268 14 0 145.74757296229254 123.63081836058197 122.70624619871757 -1 5 -10
4240 707 6 0 144.38764999442415 131.85724955886022 135.08854930569137 3 19 -5
2784 464 15 0 145.44754712720052 123.53209065409276 145.5320465837614 -1 7 -1
3182 531 14 0 133.17862390632118 139.8347851679778 137.31786951686595 -2 -12 11
4061 677 14 0 135.25659044467557 124.9276005720716 135.15856001862556 0 2 -9
1606 268 6 0 146.04652092459446 121.19589838947492 125.41545249105793 -1 5 -10
4072 679 6 0 131.05379072017462 140.20122702676892 146.6714477730818 0 6 18
2980 497 6 0 130.9326115298328 129.35527261590966 137.70017235157255 0 -14 5
1085 181 14 0 131.43576070151644 131.21330229014688 128.38389352467908 2 -5 0
4241 707 14 0 144.75687114451924 128.41211409020255 132.98941045017602 3 19 -5
4062 677 15 0 132.21901763901175 123.70771294131644 136.92028236621363 0 2 -9
4058 677 14 0 140.85529770207583 129.84525934544868 142.1586713132348 0 2 -9
4238 707 14 0 149.19405150056028 135.935157842631 133.84360875602522 3 19 -5
2323 388 17 0 148.29253969778316 129.04209590555556 141.79985797271993 0 6 -3
1081 181 17 0 142.0701126029104 135.8910090427849 132.01454119299697 2 -5 0
1082 181 14 0 138.19924059743497 136.20403641228808 132.98119135564286 2 -5 0
2979 497 13 0 133.50995504493426 130.79021478139435 139.75196325332988 0 -14 5
4219 704 17 0 135.49576675810133 123.29566441638522 143.68665154654477 1 15 -2
4057 677 17 0 140.78720344428856 130.48478668379622 145.96782004213023 0 2 -9
2724 454 15 0 142.81088704518322 132.01072874843643 127.52498182222743 1 10 -3
1084 181 6 0 134.71287032353834 133.51323191290732 128.96672272515102 2 -5 0
1944 324 15 0 145.18175378614833 139.4446848308612 145.73651512517097 -2 9 -1
4242 707 15 0 147.89804713915578 127.05659197213173 130.65836831302659 3 19 -5
3181 531 17 0 134.7505417425384 143.30488360554796 138.490135562192 -2 -12 11
1318 220 6 0 147.9720815721168 143.17433973675574 123.84709516409819 -2 15 -10
3858 643 15 0 178.08581949131016 117.6465673537505 100.29060732334656 -2 4 -10
1799 300 14 0 164.20755372121403 108.97367112419367 111.31556022943178 1 -15 -7
1798 300 6 0 164.59934038417393 112.42182709795614 113.75012282973103 1 -15 -7
1797 300 13 0 168.19002431803813 113.71215919553518 113.93659159819023 1 -15 -7
3857 643 14 0 174.60331355584958 118.22388174202656 101.01686834038573 -2 4 -10
3869 645 14 0 174.62346959664924 116.28043220310097 109.20586274091892 -2 1 -10
2095 350 17 0 167.55694328957347 105.45254221389982 105.40197514788335 -1 3 6
1800 300 15 0 164.03874719097232 111.64287046688261 108.62764356780586 1 -15 -7
3868 645 6 0 172.77790872715917 113.4524571266981 107.18837900675803 -2 1 -10
966 161 15 0 163.54337016973162 99.3419505810084 100.27711595362845 0 21 14
3599 600 14 0 174.0495103484478 110.44705657346805 101.36032400077632 1 7 -6
3672 612 15 0 167.66465898260137 106.91435785484401 121.89133786840074 1 -8 -17
3007 502 17 0 172.50173622299485 102.42412932804247 107.36864552005578 0 -16 -3
3009 502 13 0 177.8680613072677 100.21021674947028 104.71096340291568 0 -16 -3
1796 300 14 0 169.3104860558209 117.2731728459729 112.84776465756154 1 -15 -7
2098 350 6 0 159.60245938508316 99.53398002238526 110.96584865653871 -1 3 6
3008 502 14 0 175.19529925547974 102.82186164121295 104.50283176416146 0 -16 -3
3671 612 14 0 167.99150065297394 104.79683792668376 118.6511470647945 1 -8 -17
2097 350 13 0 162.07965247564425 101.91951339834647 109.03334855654401 -1 3 6
2096 350 14 0 165.2111866055364 103.01024533145642 107.11325711337058 -1 3 6
403 68 17 0 165.9626195748596 111.39506379778705 97.93508362023576 -1 15 -2
965 161 14 0 160.45001328479864 98.99934407254489 102.28307797191776 0 21 14
3443 574 14 0 162.679167213594 97.81342969907845 121.11535672404509 2 -15 5
3034 506 6 0 161.7979481693467 117.81505939530024 106.60087819168913 1 -1 9
3035 506 14 0 165.42378555205232 117.36018537985642 105.64529311311759 1 -1 9
3441 574 13 0 160.9451974733446 103.97361241066606 117.18928127898964 2 -15 5
3867 645 13 0 172.3191878443354 109.83996374461645 108.50279304469302 -2 1 -10
3866 645 14 0 170.39257876144208 107.30473366258086 110.65616288596391 -2 1 -10
929 155 14 0 154.3592622238355 103.42235065358268 111.44562063526413 1 17 9
3442 574 6 0 161.63006297275686 101.20794717630969 119.53507326987689 2 -15 5
3033 506 13 0 158.16799587930575 118.78725376941951 106.0670739615191 1 -1 9
3032 506 14 0 154.59137823209207 117.5741216139634 104.92233652991011 1 -1 9
4364 728 14 0 155.0188520658053 117.57161892502205 98.03194641869754 1 5 -4
3670 612 6 0 169.46137460640145 102.16671384625175 121.449368551077 1 -8 -17
3600 600 15 0 176.5015494894585 110.61834529461409 98.29444573461174 1 7 -6
3865 645 17 0 171.51257849070427 105.0160271237289 113.63586783904816 -2 1 -10
2053 343 17 0 173.49700006564615 116.51867525982095 119.7003902018841 -1 -6 5
2597 433 14 0 153.60731807222564 106.37217096666011 104.14292116046512 0 -14 -14
4363 728 17 0 154.78009642142501 113.92771885456575 98.64216610448823 1 5 -4
1795 300 17 0 167.69165407358193 120.30872269839439 111.16146373594057 1 -15 -7
2869 479 17 0 160.244958175752 112.41848116117252 103.33334100163891 3 -22 3
2598 433 15 0 154.88013996757044 108.44068389073111 101.0579400578488 0 -14 -14
140 24 14 0 167.87540998595125 98.17494600990118 111.10245258021392 2 6 -8
2870 479 14 0 160.54682857727892 115.09715123723703 100.53442148334943 3 -22 3
2054 343 14 0 175.19196008939645 113.19941701757817 121.6554458784294 -1 -6 5
486 81 15 0 168.4967724066733 112.99149361823385 121.45318194369834 1 20 -20
2555 426 14 0 174.59497673192752 106.04967014687169 121.54974002884484 1 12 -2
3870 645 15 0 178.0926862501161 115.49709855699058 110.35593655869312 -2 1 -10
3439 574 17 0 160.2970872120492 110.40454626366942 117.27678270618621 2 -15 5
3751 626 17 0 180.20980583111157 102.88537958321304 109.82751396448919 2 -15 -9
3440 574 14 0 162.02183028199786 107.29130393331361 118.29450969497222 2 -15 5
926 155 14 0 151.71265847026314 97.74662527651611 118.10231381455831 1 17 9
963 161 13 0 162.25589213614197 105.49690382385654 100.62161110584388 0 21 14
3598 600 6 0 176.93770311490323 110.61237257958562 104.01350938009455 1 7 -6
3597 600 13 0 179.3258435855355 110.57864089157421 106.65085520839115 1 7 -6
962 161 14 0 159.78472265618706 107.1391611678327 97.88482266921025 0 21 14
2167 362 17 0 154.90545511000047 102.8477628703257 98.01932255415824 -4 -19 -19
3031 506 17 0 150.9691425790343 116.83959863190526 104.36212591477789 1 -1 9
139 24 17 0 166.311919534449 100.65102856099186 113.96606317958496 2 6 -8
930 155 15 0 156.49910981275957 106.78716835245073 111.17001807491188 1 17 9
485 81 14 0 165.04172534954992 114.14309295531042 120.96593471289829 1 20 -20
1009 169 17 0 179.74915686611214 104.68021326882726 100.28501545370023 -1 -21 22
964 161 6 0 160.3475730947017 102.61200211421162 102.25776224307536 0 21 14
2596 433 6 0 152.43843665905368 102.6471494246059 104.79706535767524 0 -14 -14
2838 473 15 0 169.0346135365357 97.98031697336374 118.67764728837787 0 -19 -6
928 155 6 0 151.07025724138444 102.59362778459554 112.82828024434696 1 17 9
3856 643 6 0 175.42671367600175 121.26943823786324 103.22505630162895 -2 4 -10
3681 614 13 0 150.72045194381627 128.39139474903126 113.95704655747562 -2 16 10
2985 498 13 0 168.47654477021393 137.78961156556028 105.09128719167504 1 -6 -1
3828 638 15 0 161.76635048608705 122.37262060106004 114.53807755664205 -1 -5 12
606 101 15 0 162.25652390115783 140.41754477594156 101.8458254239553 -1 8 -4
3036 506 15 0 167.18273606789114 120.87505687655737 105.25359553344714 1 -1 9
207 35 13 0 156.66023511385256 142.74248298810645 105.96507387442598 -3 14 1
2567 428 14 0 159.48110032680904 127.22726868081928 109.28074237784261 2 19 -7
695 116 14 0 179.72743158794364 142.63914296037962 119.15252518509944 0 -11 -5
3855 643 13 0 173.87143708855572 124.77972774131742 102.8747262529395 -2 4 -10
3986 665 14 0 179.2456884701673 138.2001147915955 114.38032157590276 0 -6 -12
3684 614 15 0 157.49574966838415 121.85942489534763 119.40720444063814 -2 16 10
3825 638 13 0 170.39148117468028 122.74941489886018 121.67584467654518 -1 -5 12
3827 638 14 0 164.5386973912751 121.10279764827975 116.80505341702423 -1 -5 12
3826 638 6 0 167.53786123202784 122.485444647819 118.98574665676246 -1 -5 12
2544 424 15 0 157.62546216241148 131.1867907543005 116.6840335481974 1 -7 -12
2656 443 6 0 170.18457832960922 128.96495597278297 110.36767201299911 1 1 11
2563 428 17 0 156.1528721442326 139.4700158195657 111.77504299465555 2 19 -7
2568 428 15 0 156.61693157261973 124.70355258583123 110.11383814336796 2 19 -7
3372 562 15 0 175.17133474420933 124.6816900776146 116.74411776970395 -2 -4 1
3371 562 14 0 173.56446550206923 122.62316041254788 113.99149015820583 -2 -4 1
2564 428 14 0 154.38682507544857 136.5473404959689 109.83272833012322 2 19 -7
2942 491 14 0 164.09660352568946 138.80545729542402 119.9319658975022 -1 -14 1
3370 562 6 0 176.8240920778164 123.32812643174977 112.06966735577103 -2 -4 1
2566 428 6 0 157.6020001803435 130.4817662867994 110.37909713432977 2 19 -7
2565 428 13 0 154.84447734012224 132.74273546731246 109.31060217904076 2 19 -7
2543 424 14 0 159.31111184296046 134.57353488640493 116.33346785742549 1 -7 -12
2706 451 15 0 168.47943418641952 134.05447152891554 115.66529751534159 5 15 3
2943 491 13 0 166.22934116640386 135.71449919874095 121.07234932661642 -1 -14 1
1803 301 13 0 162.36561211062482 139.245357435402 110.95539587958078 0 4 -3
2705 451 14 0 172.05934798474217 135.06852216504748 116.01715679376969 5 15 3
1802 301 14 0 162.62069704860914 136.3637380483009 108.33809811515412 0 4 -3
2709 452 13 0 152.57007010595115 139.41660298590625 101.14604246045764 -2 6 3
2704 451 6 0 174.95961010992934 133.0451426393246 117.34838955288791 5 15 3
2703 451 13 0 175.7792769517308 130.7565216729557 120.0110889024261 5 15 3
2708 452 14 0 154.9198483412533 136.6326220519247 101.49769859908989 -2 6 3
2707 452 17 0 157.8221096657333 134.51644287071986 102.35195465992605 -2 6 3
2946 491 15 0 162.69558276155945 128.41727759432052 121.20438358618803 -1 -14 1
1801 301 17 0 162.7643257824698 134.2431964696945 105.12568002364107 0 4 -3
1804 301 6 0 161.12738901779915 142.58852863010225 112.07075535867486 0 4 -3
2658 443 15 0 164.86605011891928 125.78400064198951 107.24572935861731 1 1 11
2944 491 6 0 166.62537656616303 132.27746177972853 121.53409338883813 -1 -14 1
2653 443 17 0 176.53653046539273 134.12884130507598 105.17841050351507 1 1 11
74 13 14 0 152.01650094976557 128.44310524936375 103.21335836041773 1 -21 -14
2655 443 13 0 173.26092113048358 131.5160291243686 110.27967602366034 1 1 11
2542 424 6 0 158.76747133584078 134.5349888240433 120.23310517054409 1 -7 -12