LAMMPS data file via write_data, version 23 Jun 2022, timestep = 1050000

6000 atoms
40 atom types
5000 bonds
1 bond types

-274 274 xlo xhi
110.47666519076104 213.52333480924085 ylo yhi
110.47666519076104 213.52333480924085 zlo zhi

Masses

1 131.199997
2 57.049999
3 128.199997
4 101.099998
5 156.199997
6 71.08000199999999
7 115.099998
8 129.100006
9 163.199997
10 99.06999999999999
11 113.199997
12 128.100006
13 186.199997
14 147.199997
15 87.08000199999999
16 137.100006
17 114.099998
18 97.120003
19 103.099998
20 113.199997
21 131.199997
22 57.049999
23 128.199997
24 101.099998
25 156.199997
26 71.08000199999999
27 115.099998
28 129.100006
29 163.199997
30 99.06999999999999
31 113.199997
32 128.100006
33 186.199997
34 147.199997
35 87.08000199999999
36 137.100006
37 114.099998
38 97.120003
39 103.099998
40 113.199997

Atoms # full

3415 570 17 0 -272.5403051939246 133.89593844652222 132.78588871008597 1 4 -1
4375 730 17 0 -264.5732470842512 115.49598648822762 135.5781854959703 1 2 -1
3416 570 9 0 -270.27505927570894 130.84194572691482 132.4294786736188 1 4 -1
3417 570 6 0 -269.14035861024786 130.38692675321442 136.2041536153331 1 4 -1
3420 570 17 0 -262.60805283883724 122.54471638468995 136.02187355789727 1 4 -1
3419 570 9 0 -263.8331641521572 126.45705360409107 136.46618760082643 1 4 -1
4377 730 6 0 -258.22103283154365 116.47938731044334 134.53820151536573 1 2 -1
4378 730 17 0 -254.65968648306037 115.49438188821563 134.04427565945844 1 2 -1
4376 730 9 0 -261.6419280147745 115.51693139337418 133.10972587231663 1 2 -1
4379 730 9 0 -253.7565265963635 111.88512432711921 134.70863830302605 1 2 -1
1466 245 9 0 -218.76331680079625 132.47046160811934 135.53694278355016 1 -1 -3
1938 323 17 0 -231.39595702079728 117.74201569238407 116.79492403285285 1 0 1
1934 323 9 0 -217.73714461564202 113.75098728930581 120.66233460378099 1 0 1
1936 323 17 0 -225.15119578363021 115.40341621194463 118.36456326855392 1 0 1
1467 245 6 0 -216.48945889597434 132.01188881633118 132.55487129155705 1 -1 -3
1935 323 6 0 -221.21293946134813 114.57454698598201 118.86334272572061 1 0 1
1937 323 9 0 -228.49398601111437 115.69866344430892 116.75577158357682 1 0 1
4846 808 17 0 -203.260827326341 129.8270136964022 117.21484993689599 1 -5 3
4847 808 9 0 -201.33658092387188 126.65232337629085 117.8934710801505 1 -5 3
4848 808 17 0 -199.37550060118477 125.41196321008914 120.74486961848856 1 -5 3
1468 245 17 0 -214.47505445811257 134.566753769018 130.89987979746337 1 -1 -3
1470 245 17 0 -210.03612709955246 135.4695247929 126.68367499737809 1 -1 -3
3680 614 9 0 -195.81190187330296 126.45827742503863 125.61682174620834 1 -1 -5
4844 808 9 0 -198.10936236632716 133.84706666887985 118.42285379890347 1 -5 3
4845 808 6 0 -201.26844111017311 132.75547842031588 116.5804022404926 1 -5 3
1933 323 17 0 -214.80346259192825 112.33230405518977 118.95029591212264 1 0 1
3679 614 17 0 -193.98749022779876 123.75510146783876 126.76554643947755 1 -1 -5
1119 187 6 0 -193.5694533597989 117.67148314463148 116.70308861673738 1 8 4
1558 260 17 0 -184.4367435927653 125.27111989638406 121.0679659299565 1 -3 -3
1557 260 6 0 -183.6208023425522 129.03277558382752 120.66375141440051 1 -3 -3
1559 260 9 0 -187.96189177077625 124.87630841472306 119.90126532890174 1 -3 -3
1560 260 17 0 -191.00708436202513 123.29402898109392 121.63179206399877 1 -3 -3
1555 260 17 0 -187.06516283257494 131.6489667706275 115.85498383539075 1 -3 -3
1556 260 9 0 -186.36000566975642 131.70972821435728 119.58911972674028 1 -3 -3
1117 187 17 0 -191.42770080654526 112.2753372018776 116.38418391431821 1 8 4
1118 187 9 0 -191.90465092332892 115.17425193890134 119.02560025567317 1 8 4
3683 614 9 0 -194.09892413504664 135.02103224502275 126.1594505057167 1 -1 -5
3684 614 17 0 -191.1581334719432 135.42197324889244 123.70540801572834 1 -1 -5
1120 187 17 0 -193.15577035962303 117.48831095228638 112.85934706900186 1 8 4
3681 614 6 0 -195.11184052176642 128.71726433646288 128.40619172645776 1 -1 -5
3682 614 17 0 -194.48670254392098 132.3073986216683 128.80709002179063 1 -1 -5
4843 808 17 0 -195.04130663604158 132.78819041424282 120.23513799723544 1 -5 3
3195 533 6 0 -162.75633743818926 131.62047314457 121.32170364103196 1 -3 1
3193 533 17 0 -165.34026302254952 134.3739014514794 126.48793730024387 1 -3 1
3196 533 17 0 -164.82454427987233 130.49361060599875 118.24221215038901 1 -3 1
3197 533 9 0 -162.50524666832595 127.98922873442262 116.46544112169721 1 -3 1
3194 533 9 0 -162.3306717174865 133.47586173381447 124.65041608316798 1 -3 1
3198 533 17 0 -161.38544625573917 129.69063602153668 113.18778333342968 1 -3 1
4615 770 17 0 -81.6645561029062 118.23104892535858 121.58905071875613 0 6 5
4616 770 9 0 -82.836952082751 119.81983006429566 124.84102072626257 0 6 5
5304 884 17 0 -79.70793483515516 111.44075260103784 114.15340734149302 0 1 -3
4619 770 9 0 -87.18420814808131 113.12226327985259 123.37309806514398 0 6 5
4617 770 6 0 -86.52569415502224 120.22399510698472 125.37630455805633 0 6 5
4618 770 17 0 -87.99611040271465 116.62528995000359 124.5016342970415 0 6 5
5301 884 6 0 -80.82013529710854 112.41523414227166 121.99160071790975 0 1 -3
5303 884 9 0 -82.86030684006599 110.49048540272143 116.03515661892476 0 1 -3
5300 884 9 0 -77.26761830400496 112.72607374970468 123.46976480375075 0 1 -3
5299 884 17 0 -77.31269553212911 115.67416752247077 125.89965349901934 0 1 -3
4813 803 17 0 -9.92825484138816 132.93699043134288 111.07602206930109 0 -6 -2
553 93 17 0 -11.42170966085355 129.59074870885496 127.54718163124616 1 -2 -2
554 93 9 0 -13.459199922740542 131.5991910049352 124.79407798991416 1 -2 -2
555 93 6 0 -14.504677575857503 134.69277060209612 127.30264062682124 1 -2 -2
1326 221 17 0 12.209933115215161 134.15210333934888 121.98518474887226 0 0 1
1323 221 6 0 8.848240754818663 129.49377321016354 118.38351770991001 0 0 1
1324 221 17 0 12.520104599065803 129.7965713247986 117.19688279869403 0 0 1
1325 221 9 0 13.94657815936418 133.3138831616398 118.39164378439949 0 0 1
1322 221 9 0 6.866696599072542 126.39771572647729 119.84821075975212 0 0 1
1321 221 17 0 9.113080714454377 123.14940172790153 120.98345344927444 0 0 1
5283 881 6 0 14.620957469805964 116.95436359056211 115.69426475729743 -1 2 3
5282 881 9 0 12.73770034411371 120.11828110642462 116.22094706975447 -1 2 3
5281 881 17 0 10.628878530845444 123.34126425555783 115.18653743250108 -1 2 3
5285 881 9 0 19.266614105314392 112.39344387313832 113.88578141164335 -1 2 3
5284 881 17 0 16.18417514634934 113.28068007398645 115.43476757651985 -1 2 3
1015 170 17 0 14.799308023857943 126.28336891124535 123.45832889482546 0 -1 6
1016 170 9 0 16.780471087450376 125.11159679503675 120.19639508767224 0 -1 6
5034 839 17 0 36.59308547226522 120.47183077559507 115.02958359636966 1 3 -2
1019 170 9 0 24.893303395427694 123.36578404349726 119.25419174425389 0 -1 6
1017 170 6 0 19.715334867341227 124.09817902701135 122.65205281979227 0 -1 6
1018 170 17 0 22.7066475877689 125.8995011136983 121.33670734129362 0 -1 6
5844 974 17 0 25.593247162311275 115.70576600458968 115.05636345417523 0 2 -1
5843 974 9 0 25.14739315066252 113.35449516049559 118.05515574979161 0 2 -1
5031 839 6 0 27.898131815307938 126.29159069467009 115.33486760130991 1 3 -2
1020 170 17 0 23.33189898657061 121.60441007433325 116.1647363145789 0 -1 6
5033 839 9 0 34.49721086348929 122.91915795972139 116.99544312654454 1 3 -2
5032 839 17 0 31.231988017836404 125.13634679812186 117.32854062685854 1 3 -2
5030 839 9 0 28.560920786527202 128.12762612225129 112.0649217209696 1 3 -2
5842 974 17 0 26.750155625530628 111.45937806256643 121.17725417003656 0 2 -1
5836 973 17 0 58.51553004837319 125.31702001325702 110.56011613319693 0 6 -4
5834 973 9 0 63.594179480844986 119.61132982244217 110.51329058496054 0 6 -4
5007 835 6 0 70.21349744343907 131.37801727710317 111.38195641802204 0 -1 2
5008 835 17 0 69.72786374821077 131.9631993580671 115.04531439998507 0 -1 2
1272 212 17 0 61.772305144507335 110.5793397322473 112.5210211951532 0 1 2
5009 835 9 0 72.47439909167248 131.73359589658762 117.81988028794113 0 -1 2
5010 835 17 0 70.23985835279407 129.66390196810653 120.20870028577116 0 -1 2
5005 835 17 0 75.8378941804017 129.00992880302502 112.28666512794206 0 -1 2
5833 973 17 0 62.89980301524233 118.1651950033589 113.80417257842612 0 6 -4
814 136 17 0 81.99259028356525 117.87287637691284 113.95884759432994 0 2 1
815 136 9 0 81.9052342277058 120.1929553237664 116.98969880895314 0 2 1
4054 676 17 0 81.8952715096441 129.6841660393721 115.92323171965292 1 2 -1
2213 369 9 0 85.5580959974753 114.5218612449525 136.49109837871302 0 -1 1
4056 676 17 0 84.29095628457901 130.89547813220872 122.89954994107421 1 2 -1
4055 676 9 0 82.87441509502308 130.06834877882125 119.56169250814035 1 2 -1
718 120 17 0 88.18765717717459 129.7523861949239 116.60228245825408 1 1 0
4053 676 6 0 82.76769290233644 129.7376651047206 112.6714687482987 1 2 -1
816 136 17 0 82.46497697588696 123.37071140276905 118.84287110826085 0 2 1
716 120 9 0 91.98006665999867 135.49107208756948 116.33473121384176 1 1 0
717 120 6 0 88.9118047848959 133.53034347976325 115.9781898582288 1 1 0
552 92 17 0 91.91210656262206 118.15300401849092 122.00363481179838 0 0 -1
1336 223 17 0 87.62326717609677 125.29869073148517 121.2047272146324 0 -1 2
1337 223 9 0 87.67685419604082 123.04441773865899 123.9700293081615 0 -1 2
1335 223 6 0 91.24816313173417 125.54235588220516 120.71125781938656 0 -1 2
1338 223 17 0 87.79052546147143 120.95838971349148 127.25934191036342 0 -1 2
551 92 9 0 94.68686907403199 120.83421095396635 121.84947613890637 0 0 -1
719 120 9 0 88.80419242613623 127.50144040898154 113.88730804004281 1 1 0
550 92 17 0 96.77101920367794 119.31012008368494 124.40276697503108 0 0 -1
720 120 17 0 87.74336903137119 123.91012614722108 112.92914899326786 1 1 0
1982 331 9 0 95.66718039557492 123.1184697099725 135.19907942354723 0 -1 3
1333 223 17 0 93.5444262529053 132.6141230241973 121.83209200524547 0 -1 2
1334 223 9 0 93.51965776443383 129.06184054391437 120.63081091642184 0 -1 2
582 97 17 0 92.83741509369867 130.07281370553952 132.86569073448726 -1 -1 0
581 97 9 0 96.21060842391357 131.0504693196915 130.93615873912373 -1 -1 0
3253 543 17 0 83.8228093179221 111.46463370589181 110.71665855813949 0 0 0
549 92 6 0 97.69818881775245 115.67064915755334 124.19410806037848 0 0 -1
1281 214 6 0 93.80973816092535 111.30247404041954 129.27245946206335 1 0 -3
2214 369 17 0 87.7855199018186 116.22647289027245 134.32184775259284 0 -1 1
410 69 9 0 95.7891619479923 119.09361585090478 113.01444209101967 0 3 0
1981 331 17 0 97.03056338161086 123.93064685671239 131.86399351213933 0 -1 3
1279 214 17 0 93.38625496996882 118.0594454449826 132.57490472569336 1 0 -3
1280 214 9 0 92.63731423021454 114.74746481054308 130.42983574800354 1 0 -3
414 69 17 0 97.96929281972993 131.25145047874355 114.65037287368347 0 3 0
547 92 17 0 95.43900593423041 112.90153410555271 118.78835956261123 0 0 -1
409 69 17 0 96.22759474155701 115.28070936424814 113.13963885895066 0 3 0
4613 769 9 0 92.53339985524657 135.74630449017434 162.10580079770372 0 1 0
1143 191 6 0 -272.25930462537883 145.69027680167838 115.46634262316083 1 4 1
1141 191 17 0 -270.7604967635407 141.44003422674237 118.95964471099488 1 4 1
1142 191 9 0 -271.3050058851379 142.0077740150021 115.04811148690088 1 4 1
3949 659 17 0 -218.54259922534243 146.58640607636488 122.11334983519903 1 -2 -2
3951 659 6 0 -219.35398588263953 146.48244040427187 115.62151214548959 1 -2 -2
3952 659 17 0 -219.91079959661732 145.58137144107363 111.84098762995443 1 -2 -2
3950 659 9 0 -217.0546911799206 146.49660352220738 118.87496353133763 1 -2 -2
1469 245 9 0 -213.67881489415103 136.0796250978815 127.40678549650956 1 -1 -3
5998 1000 17 0 -162.62113835703326 158.98100014438296 111.84402452037337 1 -1 2
5209 869 17 0 -112.88156607857404 145.8840376109432 124.4201021528854 0 -1 2
5214 869 17 0 -116.60843626120162 154.8233373528082 119.0982306343166 0 -1 2
5211 869 6 0 -114.69279255301633 146.31337939070684 117.51038287604827 0 -1 2
5210 869 9 0 -114.01539025055655 145.80309570055113 121.14632803114945 0 -1 2
5212 869 17 0 -112.36309253151911 149.44579086063408 116.05683248999462 0 -1 2
5213 869 9 0 -114.31559930558315 152.40925904642648 117.5202173188373 0 -1 2
1024 171 17 0 -103.93128560102915 137.7984715817702 125.80809006079092 0 1 -1
1022 171 9 0 -108.01563693045485 136.64622916850794 120.58977889791979 0 1 -1
1023 171 6 0 -105.71948918194545 135.92762251587814 123.377823870536 0 1 -1
1025 171 9 0 -105.60088790981445 141.07110153105057 127.09986887239619 0 1 -1
1021 171 17 0 -110.4276040466415 139.43311488995954 121.4834013577062 0 1 -1
2105 351 9 0 -107.5587625048426 146.72979398412147 120.95883021545993 1 1 4
2106 351 17 0 -107.07438866954256 144.8493771675676 117.58698555724594 1 1 4
2074 346 17 0 -101.25241684370236 139.43620529213985 118.54431104539601 1 2 5
2073 346 6 0 -103.25912021766227 140.31892296838296 115.2941417507315 1 2 5
2072 346 9 0 -105.04384696713821 139.70467760824909 111.8087269332335 1 2 5
2071 346 17 0 -106.19046818611356 143.27023504550507 111.26940444640854 1 2 5
2103 351 6 0 -108.5807890473617 153.04331026524716 120.97876775504142 1 1 4
2104 351 17 0 -108.98475634472035 149.84213475786703 122.7920999750264 1 1 4
2102 351 9 0 -108.34185189343573 156.4242659462141 122.59172388236222 1 1 4
1026 171 17 0 -106.10159822991054 143.6320472955704 130.16976973843026 0 1 -1
2101 351 17 0 -110.99303237049101 158.94182421342902 122.86207910321313 1 1 4
2075 346 9 0 -98.05892234159867 141.88888006017976 117.38394809624965 1 2 5
2076 346 17 0 -96.98056042636473 140.72159176416187 114.170890025153 1 2 5
4242 707 17 0 -78.15835913975742 152.7459711202041 110.79297686858771 0 -2 -9
5039 840 9 0 -40.19885219387169 158.78681097470815 116.25064788357037 1 -5 0
350 59 9 0 -41.83365018823914 147.22806858846897 112.42683182169989 1 -2 2
5037 840 6 0 -42.235744312837255 155.9370413021745 111.63272508786183 1 -5 0
349 59 17 0 -39.18438907627739 144.83298871826935 114.06277662054698 1 -2 2
5038 840 17 0 -40.776611570099654 159.2995429123343 112.75046951373551 1 -5 0
4058 677 9 0 -33.68035337172975 141.47544895795824 134.76023854777318 0 -3 3
4057 677 17 0 -35.23541203310619 144.35881683064022 132.8856806338055 0 -3 3
2756 460 9 0 -19.48240370874909 142.9291940839179 124.73466131006062 1 -3 3
2757 460 6 0 -19.974623591380528 139.33644267729505 123.74219024049987 1 -3 3
1888 315 17 0 -10.422122230660934 140.94255752849784 116.30299294695125 1 -1 4
1886 315 9 0 -12.744437420717885 144.858656072448 111.25591122851327 1 -1 4
2758 460 17 0 -18.70128149521821 137.13238323983794 120.70484085111815 1 -3 3
558 93 17 0 -12.876752550581783 142.03714092625845 134.92252405511286 1 -2 -2
2759 460 9 0 -15.112305386362738 137.5672346558455 120.23402584457796 1 -3 3
2760 460 17 0 -12.539997434344638 138.3500780557353 123.47185696456471 1 -3 3
4568 762 9 0 -11.402585837389909 148.33506465351132 130.4397378143502 0 4 6
4567 762 17 0 -10.769492808686092 144.76544845131747 129.00859054944746 0 4 6
556 93 17 0 -14.549412864133917 136.67060700758796 130.53566213484248 1 -2 -2
4569 762 6 0 -10.027506438182396 148.59637341416845 134.0649821303434 0 4 6
557 93 9 0 -14.793340390610023 139.18801031644088 133.38971492412455 1 -2 -2
1890 315 17 0 -5.0929158439990605 136.10863538718053 114.15319993044383 1 -1 4
2755 460 17 0 -18.699724841419943 145.22090486986997 121.70539876056729 1 -3 3
1889 315 9 0 -7.738992471733482 138.24535249987147 116.00677223830783 1 -1 4
1887 315 6 0 -11.413108147967709 144.21463642142137 114.70037282486516 1 -1 4
3839 640 9 0 5.349242250021141 143.28729953713017 133.94919530571104 0 1 1
3840 640 17 0 1.6981469332485215 144.31852046947455 133.2758757309364 0 1 1
4502 751 9 0 35.99442842631466 156.46154997773033 115.34729029155382 0 2 1
4503 751 6 0 37.85946061893451 157.97174383045677 112.70981590057602 0 2 1
4501 751 17 0 34.503974910307356 153.20692545992978 114.75101851252633 0 2 1
4504 751 17 0 40.00738729951983 155.45677437183102 110.48443532254885 0 2 1
4124 688 9 0 43.52850920121506 154.23492279859104 116.56448639193306 0 -1 1
4126 688 17 0 41.717742946761696 160.23325572151248 120.08367621737996 0 -1 1
4748 792 9 0 41.65754716868561 141.70852204539105 135.01955111934666 0 1 -1
4747 792 17 0 45.23981871641571 140.40608336513213 133.8432087642308 0 1 -1
4749 792 6 0 39.94190931490806 141.26888120207735 131.55639782576912 0 1 -1
4750 792 17 0 41.3409520768328 141.26548076827936 128.1371809257557 0 1 -1
4123 688 17 0 45.1284883387735 154.10950182074012 113.37700223599195 0 -1 1
4751 792 9 0 42.11251403926369 144.85103624716854 127.3716418612743 0 1 -1
4752 792 17 0 41.3214779703772 148.5922350635489 127.06712567170848 0 1 -1
4125 688 6 0 43.16775494260347 157.83931488116113 117.39605440861645 0 -1 1
908 152 9 0 75.19282163204036 145.90164738850174 124.39955267081548 0 1 2
909 152 6 0 75.54785706646133 145.90416235581026 120.56111119607289 0 1 2
5904 984 17 0 73.56420237150735 140.0566138460291 111.69672022115681 0 1 0
907 152 17 0 73.95543865391869 142.76468679225817 126.63917734980062 0 1 2
912 152 17 0 66.90457767516318 145.3061710136065 115.60632768159779 0 1 2
910 152 17 0 74.32322585411713 144.9062365390179 117.14243641955002 0 1 2
911 152 9 0 70.47668722872922 145.6699850687814 116.69443468656549 0 1 2
715 120 17 0 90.70496525238362 139.42495462947548 116.05039664133885 1 1 0
3578 597 9 0 95.66732468406789 143.96071075705873 123.2846635010031 0 0 2
3579 597 6 0 91.72755127008456 143.54301329716313 122.99726678797253 0 0 2
3577 597 17 0 94.9389880386415 147.59617484154342 123.71828410771067 0 0 2
3580 597 17 0 89.14955677750002 143.64298201670522 125.39569933811887 0 0 2
3581 597 9 0 89.4275856579476 142.71336038266628 129.15406746750264 0 0 2
3582 597 17 0 92.8782323870183 140.83327503512373 128.4963794576626 0 0 2
900 150 17 0 94.66642072392874 158.13033732693475 132.2066851849524 0 -1 1
678 113 17 0 94.06382522217213 156.97356757298962 124.75180060578188 0 2 2
674 113 9 0 89.42757644188413 151.79742585240135 136.32298240591058 0 2 2
676 113 17 0 92.88973488846605 152.4175595067291 130.34015237481432 0 2 2
677 113 9 0 93.32913259871837 154.2546636031699 126.82011765630163 0 2 2
675 113 6 0 91.2508096300405 150.6332124038904 132.987153590179 0 2 2
968 162 9 0 -267.39591619318 115.5491266071052 156.97485641463805 0 1 5
3418 570 17 0 -266.7158022732632 128.3854747753929 138.068470767156 1 4 -1
2546 425 9 0 -260.5430776807542 122.56261332600383 142.23386388558936 1 -1 -1
2549 425 9 0 -262.3838939123517 130.99173791716714 146.5364637709902 1 -1 -1
2550 425 17 0 -263.6407948412858 129.87331558829555 150.15274518331384 1 -1 -1
2548 425 17 0 -262.27569966490626 128.70142802199373 143.47923310773692 1 -1 -1
2547 425 6 0 -263.313587256707 125.25922660978219 142.9672336877605 1 -1 -1
2545 425 17 0 -258.28272552131295 120.61941510161516 145.07383524557392 1 -1 -1
970 162 17 0 -271.44249021217524 111.76995594239021 162.6686720706154 0 1 5
967 162 17 0 -264.33032808876715 117.45259809729392 156.8998943890862 0 1 5
4380 730 17 0 -254.70896336476304 111.5094831770752 138.54919177099612 1 2 -1
969 162 6 0 -270.3383672362178 113.33574446564953 158.75404879577704 0 1 5
1465 245 17 0 -221.60257888534957 132.24474360282346 138.3080141402994 1 -1 -3
712 119 17 0 -198.4071896889777 116.73013361634497 155.53027441354016 1 -1 -1
711 119 6 0 -197.6519540988711 112.86360140445 154.50517669203106 1 -1 -1
4803 801 6 0 -202.92886588039684 129.50332007397236 157.72298036191992 0 3 0
4806 801 17 0 -202.87022547042133 121.65156685491439 151.1787331716594 0 3 0
4804 801 17 0 -203.42216596876912 127.73319953869623 154.20782903945988 0 3 0
4805 801 9 0 -203.10175571075013 125.51601366609654 151.08365845980958 0 3 0
4802 801 9 0 -199.42796761381638 129.58333617621258 159.79988922223095 0 3 0
4801 801 17 0 -200.0259983478933 133.34912714882176 159.82572608564473 0 3 0
713 119 9 0 -200.0302204679502 119.43828414416288 157.81065918720702 1 -1 -1
714 119 17 0 -202.98690727945103 118.11735060316748 159.99688476884654 1 -1 -1
795 133 6 0 -125.65872443452562 133.48532394379916 151.57078704716633 1 4 -5
796 133 17 0 -128.98680453137996 134.72972665183016 153.474091302652 1 4 -5
1860 310 17 0 -59.70033113115466 120.25347947172519 144.47575622699543 2 1 -1
1857 310 6 0 -62.39492180829634 113.67617758332133 142.12006302797096 2 1 -1
1856 310 9 0 -58.80213331713852 112.9265360675112 142.24966943165032 2 1 -1
1858 310 17 0 -65.16529386291337 115.98121857886031 143.286010207933 2 1 -1
1859 310 9 0 -63.22760360656196 119.09099310362096 145.41073325684528 2 1 -1
1855 310 17 0 -56.496058082597564 110.96638694413782 144.3362095570525 2 1 -1
2375 396 9 0 -53.17872622952487 125.08347347179081 156.60885182753722 1 -1 -1
2374 396 17 0 -53.44137356684959 122.78554705330103 159.28747472301725 1 -1 -1
2376 396 17 0 -53.2328813435115 128.04381968973047 154.41602196716337 1 -1 -1
2373 396 6 0 -54.46518949008455 123.0484273817128 162.82746403078352 1 -1 -1
5701 951 17 0 -39.23213003722631 126.5707735869701 156.0255550196038 0 2 1
5702 951 9 0 -39.88817399997299 128.52413575791093 159.50564742415565 0 2 1
2312 386 9 0 -26.506025111036365 121.25833513559799 141.57852025411344 1 1 3
2311 386 17 0 -23.700296974027758 120.5329574366396 139.0377906162641 1 1 3
2315 386 9 0 -24.21436758307947 129.18803778821925 143.58610156086033 1 1 3
2314 386 17 0 -26.167014080045885 127.56867580892698 140.41826241463838 1 1 3
2316 386 17 0 -21.902652196523885 126.29381619100566 145.12440965066966 1 1 3
2313 386 6 0 -28.798680078274057 124.50667011463979 141.0073171950676 1 1 3
5706 951 17 0 -27.123834885473308 132.33467637544143 161.9722778077217 0 2 1
5704 951 17 0 -32.441418101265235 128.71737913765958 161.31773912549457 0 2 1
5703 951 6 0 -36.03692818822773 128.21393464001292 160.14537686753906 0 2 1
5078 847 9 0 -7.836823981643433 111.91217966393754 157.442531177251 1 1 -1
5079 847 6 0 -5.684889661376245 112.6154454146351 160.3807127719184 1 1 -1
1106 185 9 0 52.0771174593685 112.56129413439834 145.27312611363703 0 1 -2
1107 185 6 0 49.3344077907549 111.30949386124801 147.05555087734876 0 1 -2
1105 185 17 0 51.5601134972283 116.4670059099825 144.5605979531816 0 1 -2
1108 185 17 0 48.343854621965264 110.77579987995534 150.4834915108153 0 1 -2
3829 639 17 0 78.08321846954807 122.75261353240364 138.97108147621287 1 -1 5
3588 598 17 0 76.34598601912857 133.81192311399053 162.92236010043067 0 3 -4
1983 331 6 0 97.7851697770367 124.51099319694826 137.92793478812715 0 -1 3
1057 177 17 0 97.20733399648608 117.44641167300432 162.6608645155725 0 2 0
2212 369 17 0 85.62519069780278 110.87429144146738 136.7607075127517 0 -1 1
3830 639 9 0 80.95718184197776 120.00267445535053 139.73683432842648 1 -1 5
3831 639 6 0 80.86352272882093 116.91056141735353 142.41399730095108 1 -1 5
4863 811 6 0 95.39689794082626 129.06934974027877 141.1989599041529 0 2 1
4864 811 17 0 93.63678757550335 131.75571153972257 138.86116611573536 0 2 1
4861 811 17 0 91.37727766313147 124.68089596874103 140.1662022087641 0 2 1
3832 639 17 0 83.81044532536482 115.46098587159263 143.81989260435557 1 -1 5
4862 811 9 0 93.2253191423676 126.40355229091483 143.07597210289907 0 2 1
884 148 9 0 96.66263252316891 115.91315527898854 150.61429292040594 0 5 1
885 148 6 0 95.8911767448123 113.50344202352562 147.67817602032054 0 5 1
3833 639 9 0 86.32205893464638 113.34370700978083 145.82667714049222 1 -1 5
4865 811 9 0 95.71699529333883 135.09797420006723 138.71578686431113 0 2 1
3834 639 17 0 89.98034837954467 113.70868181976839 145.1100696712984 1 -1 5
4609 769 17 0 87.48992482732123 133.12173049855176 151.23616058473277 0 1 0
883 148 17 0 97.24504041942107 119.52171988402458 151.06497684860256 0 5 1
1062 177 17 0 89.25645545252233 110.59060337353084 160.86012002561338 0 2 0
1893 316 6 0 -258.9131533967121 149.99086979484332 162.79357711691236 1 -4 -2
17 3 9 0 -217.67451315859518 140.2608275763335 140.9808103347463 1 -1 0
18 3 17 0 -217.51379863088758 137.663658797791 138.74685695352196 1 -1 0
13 3 17 0 -217.6475629639635 140.22617535328698 154.84536705637043 1 -1 0
14 3 9 0 -218.10557043642382 141.30745513160437 151.10829577329594 1 -1 0
15 3 6 0 -219.04040426006634 141.03079187236594 147.33894449447797 1 -1 0
16 3 17 0 -218.83699530299774 142.56618272386618 143.93250112814383 1 -1 0
797 133 9 0 -130.14466228446187 138.35414678226758 152.80073214280748 1 4 -5
798 133 17 0 -130.03439533920488 141.38174451722298 151.05879060403677 1 4 -5
793 133 17 0 -123.40225577894336 137.8145161702163 154.8231578578687 1 4 -5
794 133 9 0 -122.6611200265665 135.68122083424475 151.87275167922766 1 4 -5
4062 677 17 0 -43.08868719297953 136.51926724035297 140.121187030543 0 -3 3
4061 677 9 0 -41.07953585911721 139.2716560933808 141.62562269803408 0 -3 3
3590 599 9 0 -39.60001339145655 151.21538036665265 144.31495402123932 1 10 3
3589 599 17 0 -42.88471026279094 152.88965853572782 143.8695903852748 1 10 3
1434 239 17 0 -41.340057677578635 147.4791298186524 155.34535952071354 0 1 0
1034 173 9 0 -41.403415629517326 155.7730643342472 153.68411558056522 0 0 4
1432 239 17 0 -40.23488804634393 142.92896058489382 158.7019095273404 0 1 0
1433 239 9 0 -42.71522792393993 143.75986533884807 155.78701846812743 0 1 0
1033 173 17 0 -43.137064288719905 159.1617084987155 153.69317003212933 0 0 4
1036 173 17 0 -39.13849665739786 159.72022105351505 157.64655338060297 0 0 4
4059 677 6 0 -35.18947924463262 140.3146323309308 138.0696928720635 0 -3 3
4060 677 17 0 -38.97710776376203 140.9701517140461 138.76061639949353 0 -3 3
3593 599 9 0 -35.80356703919562 159.34535475982798 143.55649651382842 1 10 3
3592 599 17 0 -35.2517798681595 155.71917916060826 142.14783035330822 1 10 3
3591 599 6 0 -37.01767093720164 153.60686637026984 144.91799721289473 1 10 3
1429 239 17 0 -34.416683967640736 148.52861699951103 155.0721707333511 0 1 0
1430 239 9 0 -33.68999278275799 145.2254520799424 156.28245939469207 0 1 0
1035 173 6 0 -38.335698901193496 156.75777552480903 155.55186777137808 0 0 4
1431 239 6 0 -36.75283270435093 144.06244371284942 158.03388000973735 0 1 0
4570 762 17 0 -11.014194630697952 148.08095627838927 137.5236852511331 0 4 6
4571 762 9 0 -8.209164961588444 146.82401507084714 140.01236816367657 0 4 6
4572 762 17 0 -6.050436492620349 143.9716640625324 141.8606860157136 0 4 6
3835 640 17 0 -2.5441899743635368 137.64256420607768 139.21199083251585 0 1 1
3836 640 9 0 -0.03302292857825906 140.13997831292954 140.59400625749643 0 1 1
1419 237 6 0 16.680738115471062 155.20530448828129 138.2850254793028 0 -3 -2
1418 237 9 0 17.989587569403284 158.40216951890372 136.91726488587724 0 -3 -2
3837 640 6 0 3.5416694421851767 139.4781073252304 140.30248767521678 0 1 1
3838 640 17 0 5.440036106214771 141.14172025661793 137.33731395537072 0 1 1
2298 383 17 0 16.633599547226595 160.21318416938743 144.81748107277667 0 -4 -4
2297 383 9 0 19.556538099764445 158.14730278858661 143.94015852229006 0 -4 -4
1420 237 17 0 13.75625018709433 152.95025774854835 140.24431266245074 0 -3 -2
1421 237 9 0 10.75641806138197 150.2901667961868 140.8654290460152 0 -3 -2
1422 237 17 0 8.421281605486008 153.3009452194323 142.0561023706173 0 -3 -2
2293 383 17 0 24.85398684730522 147.61151320253333 147.41592578651247 0 -4 -4
2294 383 9 0 22.517595765223078 150.54708983239544 147.4406853971771 0 -4 -4
2295 383 6 0 23.20749603832052 152.29596954540247 144.04617949393602 0 -4 -4
186 31 17 0 31.1778655970098 156.92288849132225 152.4990931386218 0 0 -2
2296 383 17 0 20.377171171034167 154.45801959015606 143.51542539242485 0 -4 -4
184 31 17 0 25.030395257089722 159.36900392211427 148.8735349211063 0 0 -2
185 31 9 0 27.598488970013754 157.61422470658087 150.87976113434738 0 0 -2
562 94 17 0 48.785721096892885 151.06944636014418 160.45441942708342 0 -1 5
560 94 9 0 47.2799239649245 157.88228550170086 157.58374406806269 0 -1 5
563 94 9 0 51.25431044839704 150.55054649778333 162.98927731474305 0 -1 5
564 94 17 0 54.11826966096601 149.17473901039688 160.90694118230144 0 -1 5
561 94 6 0 47.55118653541779 154.23424169439528 158.8856835068629 0 -1 5
3331 556 17 0 92.67020519509566 157.9866273857259 142.6597058316589 -1 4 0
1295 216 9 0 89.60788904127138 142.0708828035351 160.46035170757685 0 0 0
306 51 17 0 96.12740858938233 156.0034089688269 157.58186933355793 0 -2 -2
3927 655 6 0 93.15349785376718 142.50967445031193 145.51281378084167 0 0 -2
4866 811 17 0 97.86260451724762 137.05679885594998 141.0253616208857 0 2 1
3332 556 9 0 91.30521834737932 154.36936573511784 142.95248883603455 -1 4 0
673 113 17 0 86.53892113383046 154.25550469217916 136.90897126425955 0 2 2
3334 556 17 0 97.91128986507563 153.31920759439885 141.43365195656565 -1 4 0
3333 556 6 0 94.54289042109328 151.70934928969885 143.24763641243078 -1 4 0
3928 655 17 0 94.46302016955343 145.3043684791395 147.55595421607862 0 0 -2
3929 655 9 0 97.72160498396366 145.23172514309647 149.3903994343355 0 0 -2
3925 655 17 0 92.56266175255392 137.61663020921875 143.83059399814923 0 0 -2
1293 216 6 0 87.89235826407906 147.7120700783929 161.53013788730846 0 0 0
1292 216 9 0 89.00059415814367 150.2499641337092 158.85706123444763 0 0 0
1294 216 17 0 87.38370521739019 144.29133775449074 162.92193964790317 0 0 0
1291 216 17 0 88.22204096966392 153.977472514238 159.07834123375306 0 0 0
1296 216 17 0 92.89524224969165 142.50565922786703 162.6215871394326 0 0 0
4612 769 17 0 93.63982942022702 136.58598693315182 158.34415643342976 0 1 0
4610 769 9 0 88.32495431724043 135.86225703635665 154.38393843873888 0 1 0
4611 769 6 0 91.92661163227159 136.62383732362136 154.79162807577393 0 1 0
3926 655 9 0 90.55196662687001 139.98458863885227 146.38182812912302 0 0 -2
5486 915 9 0 110.93980555906137 123.69301770327081 121.47844544543362 0 2 1
5487 915 6 0 112.24098256061997 126.99994684459725 122.18362986780552 0 2 1
5488 915 17 0 116.2133443158359 126.35515677185934 121.45445874089864 0 2 1
5485 915 17 0 110.37269958768806 122.30938457675168 118.04817384440982 0 2 1
4104 684 17 0 110.24631551618585 111.510785751837 124.40079172352361 0 0 1