LAMMPS data file via write_data, version 23 Jun 2022, timestep = 70001000

6208 atoms
40 atom types
6144 bonds
1 bond types

-245 245 xlo xhi
820.6445825347579 925.3554174652412 ylo yhi
820.6445825347579 925.3554174652412 zlo zhi

Masses

1 131.199997
2 57.049999
3 128.199997
4 101.099998
5 156.199997
6 71.08000199999999
7 115.099998
8 129.100006
9 163.199997
10 99.06999999999999
11 113.199997
12 128.100006
13 186.199997
14 147.199997
15 87.08000199999999
16 137.100006
17 114.099998
18 97.120003
19 103.099998
20 113.199997
21 131.199997
22 57.049999
23 128.199997
24 101.099998
25 156.199997
26 71.08000199999999
27 115.099998
28 129.100006
29 163.199997
30 99.06999999999999
31 113.199997
32 128.100006
33 186.199997
34 147.199997
35 87.08000199999999
36 137.100006
37 114.099998
38 97.120003
39 103.099998
40 113.199997

Atoms # full

5622 58 2 0 -181.49637468768165 835.3110154483478 825.5490535301568 0 -1 4
5621 58 6 0 -183.5193510918194 835.6789100932629 828.7868763009125 0 -1 4
5619 58 5 0.75 -183.8065925881333 842.2523118009855 831.8348443563996 0 -1 4
5618 58 9 0 -184.99372514357054 843.7080114602361 835.2617982980241 0 -1 3
5620 58 10 0 -183.10178192307313 838.6918657793863 830.8447540709891 0 -1 4
5623 58 9 0 -178.65619391075734 837.3720408422198 824.763798371146 0 -1 4
5624 58 8 -0.75 -177.92186564980304 835.6034698443699 821.3870257560387 0 -1 4
5654 59 12 0 -161.524605411632 834.4478804181714 841.7678395830444 0 -2 5
5655 59 12 0 -161.94347107237178 837.2524889017188 839.4013590799707 0 -2 5
5653 59 6 0 -160.40003859876722 835.4529327521319 845.4375675135833 0 -2 5
2399 25 10 0 -157.71874784811763 842.0646734975885 837.9717138297797 0 -2 2
5611 58 11 0 -177.75308427719045 839.642204456119 837.8235842694348 0 -1 3
5610 58 1 0 -177.40254354018694 841.9310148226251 834.6843122438388 0 -1 3
3514 37 12 0 -163.42375827816784 826.157127851428 846.0856923326128 0 3 0
5609 58 15 0 -175.49877720551936 842.9028035307182 831.5597387242813 0 -1 3
5603 58 18 0 -169.00598340928505 834.0793706067354 823.4432117065414 0 -1 3
5604 58 12 0 -171.05500971941981 831.2501825976087 825.9978464945525 0 -1 3
5608 58 2 0 -176.3232121137047 840.9806845792405 828.236762443831 0 -1 3
5605 58 2 0 -173.52031366475197 833.8948843597543 826.0477963532877 0 -1 3
5606 58 12 0 -174.80205232090645 834.314319066402 829.8281894745893 0 -1 3
5607 58 17 0 -176.29336967016803 837.7928239196441 830.463791596954 0 -1 3
5639 59 9 0 -162.85262960959798 828.1349537084157 838.0396992614103 0 -2 5
5640 59 18 0 -159.9892056474948 827.6610204564156 840.798315132168 0 -2 5
5638 59 2 0 -163.06004976006258 823.8673899435333 838.1242270619789 0 -2 5
5691 59 1 0 -169.927051581228 821.2250460502515 833.0947331966397 0 -2 5
3515 37 13 0 -161.34966114606914 823.3483207046844 844.8829317966844 0 3 0
5612 58 18 0 -175.59758369812968 840.7477405527297 840.8182284940809 0 -1 3
5613 58 17 0 -174.84279943488664 844.8578377153923 841.7622913825131 0 -1 3
5690 59 13 0 -168.77521631115232 823.4596844050293 836.1393040481618 0 -2 5
5602 58 18 0 -166.50531229149092 836.1210700739471 822.153399704031 0 -1 3
5656 59 20 0 -163.25354936232674 841.2443415204707 838.7614690314952 0 -2 5
5657 59 2 0 -162.51627782684992 842.6758964441836 842.3123969066398 0 -2 5
5658 59 12 0 -163.14778756265721 842.8543209938558 846.0347101905386 0 -2 5
5689 59 18 0 -170.7763201592401 825.197501467571 839.0866476461844 0 -2 5
5688 59 6 0 -171.0330436751281 823.5870263443857 842.7108836390912 0 -2 5
2400 25 12 0 -155.4885040456603 844.6321833638236 835.9017862534356 0 -3 2
2398 25 2 0 -157.1749855560612 840.4592798885192 841.74431926886 0 -3 2
2821 30 12 0 -136.30269210608057 837.2849905745996 821.0538662738726 0 2 -2
5651 59 2 0 -154.11541507476474 832.668993953883 845.7924225582218 0 -2 5
5650 59 9 0 -151.32447298916946 832.1558457698643 843.4735676204474 0 -2 5
5644 59 2 0 -148.88101989073007 828.5563621049388 834.6982234498158 0 -2 5
5642 59 18 0 -154.37409584743858 826.9910095032798 839.2373075120285 0 -2 5
5643 59 9 0 -151.4595944377434 826.5701739477005 836.5533413861074 0 -2 5
5645 59 12 0 -147.61128774790674 830.1949728743964 831.7613926818848 0 -2 5
5646 59 13 0 -149.08523283583958 833.7543518232649 831.3478907030827 0 -2 5
5647 59 2 0 -151.82637192758438 834.4276425968283 834.0466450433543 0 -2 5
5641 59 12 0 -156.99373356618256 827.5006345369045 841.9398171465504 0 -2 5
5648 59 12 0 -152.80829418016216 835.0628074409526 837.720974264835 0 -2 5
5649 59 13 0 -150.86255820927116 834.6097125035412 840.8881362410762 0 -2 5
1091 12 9 0 -136.94217053256455 839.715660506374 843.6413535250897 0 2 3
1092 12 2 0 -139.83961301614968 838.3502364183939 841.7639984615296 0 2 3
1093 12 17 0 -139.11921706143258 836.1952397719373 838.5471496243126 0 2 3
3523 37 2 0 -148.6140529850622 821.7080941018006 843.836790285548 0 3 0
1095 12 12 0 -136.8338393629762 838.8901428285536 832.8721457319807 0 2 3
1096 12 12 0 -139.19237572500577 840.5597586689814 830.7123844915515 0 2 3
1097 12 20 0 -142.7339376555117 839.783906894374 831.4340497930034 0 2 3
5563 58 1 0 -149.29004317689217 841.3922999603932 840.2618439954564 0 -1 4
2397 25 9 0 -154.97977282077554 839.3266780237172 844.7558070714995 0 -3 2
2820 30 12 0 -139.48111595460315 836.2066252929174 822.7124377194281 0 2 -2
1261 13 17 0 -147.62841919389086 823.558488132195 824.3611965370806 0 1 -1
478 5 5 0.75 -140.06612391481477 822.331511047175 823.5625197457266 0 0 -4
5579 58 13 0 -139.3596232297155 844.4165440464445 823.9358525349658 0 -1 3
1098 12 2 0 -144.64575771429244 843.0677035737303 831.4309601473741 0 2 3
5564 58 18 0 -145.23621551809168 842.0250835711436 839.7629883607908 0 -1 4
5565 58 17 0 -143.9894235802638 844.7918168603268 837.1979585353872 0 -1 4
1099 12 12 0 -145.93736784971543 843.8458510506787 827.6879648659786 0 2 3
1101 12 1 0 -152.41781088734078 845.0637408236905 826.5046040838038 0 2 3
1094 12 6 0 -138.35573939548624 835.9448174931167 834.6677519037456 0 2 3
5580 58 17 0 -137.30532410051026 843.331655044977 820.6516390422959 0 -1 3
479 5 10 0 -137.20367258985246 824.6726302450738 824.1705134388416 0 0 -5
1661 18 2 0 -146.2204297901907 844.0977418812307 844.9995086547341 0 -3 2
1259 13 8 -0.75 -144.34903096420393 827.8958899074007 821.4993054000637 0 1 -1
3524 37 12 0 -150.31239136795514 825.0442021507074 844.1300373596823 0 3 0
2387 25 12 0 -136.27155562038254 829.6745970472263 843.3371259171955 0 -3 2
5562 58 9 0 -151.26214652093168 844.7042751472649 841.1802503825634 0 -1 4
1260 13 4 0 -146.14053271542724 824.5167501671552 821.1471853677507 0 1 -1
5617 58 2 0 -182.8825065708982 846.7492234103341 835.5990184957172 0 -1 3
5616 58 15 0 -179.6616200027695 848.8480077591483 836.1386438098315 0 -1 3
2914 31 18 0 -180.36730820291206 869.9473416344164 830.4912021704229 0 -3 1
2401 25 18 0 -158.08264910732913 845.9358411591942 833.5265412142927 0 -3 2
2402 25 18 0 -161.16030019159444 847.492152075184 834.8274699370853 0 -3 2
2405 25 12 0 -167.25183850051494 847.5185760075384 844.0776366938965 0 -2 2
2404 25 2 0 -164.80328257305646 848.0707091692126 841.3311444554379 0 -3 2
2917 31 12 0 -174.62656453711247 866.4680559957906 833.9839911000786 0 -3 1
2950 31 10 0 -167.14934135418298 862.011757008584 822.8212456735466 0 -3 1
5614 58 12 0 -174.5163146004474 847.0489963903966 838.6865647214804 0 -1 3
5615 58 18 0 -175.84535119096395 849.5815116928286 836.227757505793 0 -1 3
2944 31 1 0 -159.0880532820728 850.5916596885978 829.6209850617813 0 -3 1
2948 31 13 0 -170.03482517271624 856.7737941797066 827.3929680023489 0 -3 1
2949 31 12 0 -168.49082353582023 858.8140294657941 824.1652906670519 0 -3 1
2945 31 18 0 -163.07422092547992 850.8388029357022 829.2977319681909 0 -3 1
2942 31 12 0 -158.41197300120385 855.4056566815007 834.2206335825938 0 -3 1
2946 31 17 0 -163.9268232234729 854.0482080428753 831.4372913069251 0 -3 1
2947 31 2 0 -167.31134218631777 855.3126068109688 830.2577294897179 0 -3 1
2918 31 12 0 -172.51459021147105 864.675783089595 836.7904316161586 0 -3 1
2919 31 17 0 -169.38466120827084 866.658401460547 837.1223343891777 0 -3 1
2937 31 6 0 -159.76885166047086 863.0956524969939 843.4386451103575 0 -3 1
2403 25 12 0 -162.75665714836978 847.6725084359281 838.344663708041 0 -3 2
2920 31 12 0 -166.57389727920395 867.9091327104331 835.1942988848184 0 -2 1
2952 31 6 0 -167.0373128705535 867.971738305974 822.3826381360124 0 -3 1
4542 47 15 0 -158.7270292053628 868.1926084905258 823.5119704746692 0 0 -2
2916 31 12 0 -175.35102748941887 870.0540527996876 832.9559802756535 0 -2 1
4479 47 9 0 -169.7734309814865 869.179267587194 844.3512588987843 0 0 -2
388 4 17 0 -173.1999214316207 859.9489657655834 842.2864397099918 1 1 -6
387 4 4 0 -174.08943535733184 858.8230787367197 845.8436458343508 1 1 -6
1652 18 17 0 -161.05442595719714 851.6608325528434 843.4851925140784 0 -3 2
1653 18 18 0 -160.07637055475254 848.1284840968924 844.2173300136384 0 -3 2
2951 31 18 0 -165.31148758535466 864.8029235858952 821.0939769289744 0 -3 1
4545 47 18 0 -149.67888044908784 866.6473754419493 823.0548189778273 0 0 -2
4553 47 10 0 -140.24182881727089 867.3424404457262 829.4278954476042 0 1 -2
4555 47 2 0 -139.6202761071072 870.3276612708478 825.0062930526502 0 1 -2
4551 47 9 0 -146.19690452555636 869.232117643498 829.8273944749626 0 1 -2
1128 12 15 0 -146.4481310218772 869.5958022689879 836.2946088076144 1 2 3
5558 58 12 0 -145.87709019358732 856.1938844813537 841.327165928974 0 -1 4
4552 47 5 0.75 -142.98501751043915 869.1092322608033 831.4130722004994 0 1 -2
5428 56 2 0 -147.5185463687529 868.9243385696501 841.518227419185 0 -1 -1
5577 58 12 0 -143.47442495795826 849.9731907068302 824.2446104850504 0 -1 3
2851 30 13 0 -140.21757496486583 854.6155055443804 833.1437088933656 0 2 -2
5573 58 2 0 -146.6732548775906 858.6711027476921 821.0032548449749 0 -1 3
5429 56 9 0 -151.361028565223 869.2285420935618 842.0633071577705 0 -1 -1
5431 56 4 0 -156.99381415840543 865.8199042757711 841.1179522746205 0 -1 -1
5432 56 17 0 -156.6669350388993 868.116904042266 838.0114056258409 0 -1 -1
2940 31 20 0 -153.9474855640335 856.7654408824441 839.4094280550341 0 -3 1
2939 31 12 0 -153.68241091708285 859.2257001610997 842.4908252586588 0 -3 1
5430 56 8 -0.75 -154.09522489227828 867.1286731828741 843.5822726372545 0 -1 -1
2941 31 2 0 -155.40485178747164 857.0786274359758 836.0275852496868 0 -3 1
2943 31 9 0 -156.7339785675628 853.5122432814567 831.0413192699275 0 -3 1
2849 30 17 0 -138.65090571220009 854.2618435134898 840.409417659587 0 2 -2
1125 12 4 0 -148.77313722571338 859.3009601543656 835.7558797042516 1 2 3
4548 47 18 0 -152.28256869548744 864.4581453580294 830.7902975342047 0 1 -2
1124 12 12 0 -146.7499191803407 858.2838365025904 832.6024006027457 1 2 3
4549 47 15 0 -152.87020006646162 867.8933495041597 829.3065793234084 0 1 -2
1120 12 12 0 -141.1026203053921 864.3771642412187 822.894136971129 1 2 3
1122 12 14 0 -143.05690822410367 861.7075719568111 828.2645158959565 1 2 3
5570 58 18 0 -151.4112081313939 856.0995578963647 827.7534108547503 0 -1 3
5578 58 6 0 -142.60493455481716 846.1467295807273 824.1689632563489 0 -1 3
5567 58 13 0 -148.052808824925 849.424303557332 832.5942382296871 0 -1 3
5568 58 12 0 -150.47382699488602 850.8521661370655 830.0752199054517 0 -1 3
1127 12 15 0 -145.84894072647407 866.0517263392876 836.4925924727085 1 2 3
5569 58 10 0 -149.68718380616724 852.8877265366148 827.4300301572254 0 -1 3
5566 58 2 0 -146.3343668355507 847.7901172581079 835.9198370475799 0 -1 3
5572 58 9 0 -150.20296772571953 857.5493870188375 821.9637969047203 0 -1 3
5571 58 6 0 -152.97137293009044 857.5426124072548 824.8200682266339 0 -1 3
1100 12 9 0 -148.9846637125741 845.8533957419133 826.5447064732107 0 2 3
1102 12 18 0 -154.72561327893368 846.7378452442586 824.1955922801951 0 2 2
2850 30 2 0 -140.40958463454606 855.0365399705298 837.084794906192 0 2 -2
4546 47 17 0 -150.06361570137506 864.0434135058218 825.6593663376184 0 0 -2
4554 47 6 0 -137.48672188846302 868.7340869969131 827.3384128670384 0 1 -2
5559 58 20 0 -146.7719241430644 854.3511659929243 838.4433802907619 0 -1 4
1123 12 17 0 -143.93769854365686 860.5866525364919 831.6910652521786 1 2 3
1121 12 2 0 -140.7237794606302 861.0067415501617 825.1829470188453 1 2 3
4547 47 12 0 -149.84451461169704 862.7138317437219 828.9891263798542 0 0 -2
1126 12 12 0 -147.7070411091213 862.6117128676527 837.7079192150555 1 2 3
4550 47 2 0 -149.69174193064538 870.3680431438901 829.9294144945547 0 1 -2
1662 18 9 0 -143.0004700182021 845.649633661047 843.9740975433621 0 -3 2
1654 18 10 0 -157.07535539999597 846.0953794094399 845.1471034674389 0 -3 2
5576 58 2 0 -142.00236344680778 851.8857084341723 821.0307789450002 0 -1 3
2853 30 10 0 -138.12416206481342 848.9876518103966 830.637732840723 0 2 -2
5427 56 6 0 -147.24282449185125 868.6469328804029 845.3395992944289 0 -1 -1
2848 30 18 0 -136.78845197843467 850.861848672118 840.3441180087001 0 2 -2
5413 56 17 0 -142.01521931460337 866.1831387052272 845.6242948881136 1 -1 -1
2938 31 12 0 -157.31402308037434 859.8196287559313 843.3857591480833 0 -3 1
5557 58 12 0 -144.46161990828713 853.3871441803583 843.6169016099684 0 -1 4
5412 56 12 0 -140.2868360155393 869.2986488825849 844.4177146852655 1 -1 -1
5561 58 12 0 -150.33745118881248 848.5595695462899 841.8834888342633 0 -1 4
5560 58 2 0 -148.60071196218294 851.1845761178183 840.1871745893662 0 -1 4
4544 47 11 0 -153.00499863933038 865.2950556618664 821.1345401328934 0 0 -2
2852 30 12 0 -140.90730270892445 851.9820408830957 830.6224368446067 0 2 -2
4543 47 1 0 -155.9137437438758 865.6616228988165 823.8975119921397 0 0 -2
1103 12 17 0 -155.08572717672953 848.446458841413 820.8601917948577 0 2 2
2717 29 1 0 -183.4681455649194 833.4299426347781 864.2985382104242 -1 4 -6
2420 25 6 0 -181.54020041770283 822.457218628342 858.1441292553607 0 -2 2
2419 25 10 0 -179.37553118638485 825.1515863520258 856.4828832402035 0 -2 2
2421 25 2 0 -179.52555569990906 821.9031545358299 861.0341208160429 0 -2 2
2718 29 20 0 -182.06676494407367 831.4193960808103 861.4512295518704 -1 4 -6
2422 25 9 0 -180.14798371726636 822.3407925712661 864.328574626807 0 -3 2
5652 59 17 0 -157.61482949337307 833.5119824170101 846.961490078739 0 -2 5
3195 33 10 0 -159.01778788530137 823.6484148982455 868.3774580156316 0 0 -3
3513 37 2 0 -165.22515397613753 824.805231002019 849.1604981416766 0 3 0
5682 59 17 0 -174.79615055307835 821.0237532386263 851.7353578101746 0 -2 5
3516 37 9 0 -157.91645067123196 823.0510986564689 846.4626709396675 0 3 0
3512 37 13 0 -164.1228021150517 821.6551578002643 850.9766734595725 0 3 0
3196 33 6 0 -158.72643248316132 824.469240664927 865.0689737285973 0 0 -3
2409 25 1 0 -174.22612866861056 841.9386201202911 852.5166413791852 0 -2 2
2408 25 15 0 -171.25935472721832 844.3885065820292 852.5983514154741 0 -2 2
2411 25 18 0 -172.26764048818956 834.878317525932 851.3552610043389 0 -3 2
2412 25 17 0 -172.26580451582333 830.8332595800514 851.9669566361923 0 -3 2
2413 25 12 0 -171.20531775645838 827.3578314363806 852.8108957648943 0 -3 2
2415 25 15 0 -166.91802056642516 824.3308587423554 857.439471250004 0 -3 2
2414 25 18 0 -168.514685582893 825.2142373266818 854.1664909372633 0 -3 2
2416 25 2 0 -169.96083421931283 825.4673397940093 858.7804116025451 0 -3 2
2417 25 9 0 -173.3919753432121 824.998746090312 860.379109026259 0 -2 2
2418 25 5 0.75 -175.78990783875636 825.1694077090611 857.6522601823466 0 -2 2
5666 59 10 0 -164.76097320143228 826.7443436924132 863.2338212151446 0 -2 5
2410 25 11 0 -173.3083177949555 838.1934875618329 851.9117242444643 0 -2 2
351 4 15 0 -165.36371807025796 844.6840681071861 869.7539382050214 1 0 -6
355 4 13 0 -163.08530263387524 844.475188344742 859.5657500165669 1 0 -6
5668 59 6 0 -165.03916248952592 824.5346072514806 868.8591371403031 0 -2 5
5667 59 18 0 -164.69907829986252 823.456037358985 865.0705472882004 0 -2 5
2719 29 17 0 -178.77541892411097 829.7589211669329 863.1391159976127 -1 3 -6
2720 29 18 0 -176.8531195870034 832.4049922982833 865.075090497245 -1 3 -6
5659 59 9 0 -161.42524180959356 841.2681849794586 849.0253046635227 0 -2 5
5665 59 12 0 -164.25077929401922 829.789302153327 860.5686595067849 0 -2 5
5664 59 13 0 -163.6627396835325 833.3640491364823 860.3099529492961 0 -2 5
5660 59 1 0 -159.1611381749669 841.8409630016967 852.4302691922738 0 -2 5
2721 29 10 0 -174.01456476532587 834.43121976508 866.4562957817617 -1 4 -6
2722 29 12 0 -172.41241633369677 837.7043957118634 865.8753756231396 -1 4 -6
2723 29 12 0 -174.1286357773283 841.047620613902 865.6718895220238 -1 3 -6
1076 12 17 0 -158.60592139775773 826.0668995437687 852.9402051973191 0 2 3
5661 59 18 0 -158.58274996196914 839.3812144868142 855.617462086545 0 -2 5
5663 59 2 0 -161.40848458690232 835.6018640792844 858.450876248407 0 -2 5
5662 59 17 0 -157.74893547795236 836.0745655903648 857.2317961795394 0 -2 5
3116 33 2 0 -157.70056400496534 834.2436079462527 863.9674303429958 0 0 -3
2724 29 12 0 -172.88792665562855 843.6640667400012 867.9201686752282 -1 3 -6
1075 12 12 0 -159.747404203967 826.4946538628075 856.8581725641205 0 2 3
1074 12 12 0 -160.90782307677287 822.7903146000327 858.2760410488224 0 2 3
2390 25 6 0 -139.39487687487826 832.7484146317272 851.7543319773216 0 -3 2
2392 25 13 0 -144.86216598123323 832.7738086664913 847.5352868755818 0 -3 2
2393 25 1 0 -147.08760088925072 836.0657388903128 847.9773739672958 0 -3 2
2391 25 18 0 -143.091357340576 832.0323732471849 850.9562125908138 0 -3 2
1090 12 13 0 -137.9049117879124 841.6466665220664 846.6009425389856 0 2 3
2394 25 2 0 -150.2128472650268 834.4081904997779 849.6500781208482 0 -3 2
3198 33 9 0 -152.91055630068112 820.877991866918 863.453013644955 0 1 -3
334 4 9 0 -146.0438657465105 825.3130057257926 871.6567077597456 1 1 -6
2395 25 18 0 -153.25435716654425 836.4853102769316 849.9502359182528 0 -3 2
2396 25 17 0 -152.0004229163756 838.409955640772 846.74022253904 0 -3 2
1214 13 13 0 -135.65383734568792 840.9146485178561 864.9965084686573 0 1 -2
3532 37 10 0 -136.66761392383023 828.8081378623717 861.9638824613637 0 3 0
3525 37 9 0 -149.83768779446797 826.7189955015936 847.2971419950975 0 3 0
3541 37 6 0 -150.10896689733175 822.5333402888667 855.5581253411001 0 3 0
1089 12 12 0 -137.28083459102763 842.0118984006612 850.4344190344965 0 2 3
3115 33 20 0 -157.04707107463906 837.8434033717042 862.9178179105766 0 -1 -3
2389 25 15 0 -138.51556817704162 829.385695065136 850.29621406614 0 -3 2
2388 25 15 0 -137.18885985480654 828.4316182885228 846.9519887950127 0 -3 2
3528 37 17 0 -145.1469025424487 827.389730902848 857.2802626998874 0 3 0
5338 56 17 0 -139.11495538891427 822.1856633887174 869.6236543574031 0 0 0
1213 13 6 0 -137.04927620203358 844.4379163704772 864.5774843003156 0 1 -2
3533 37 18 0 -138.29030190492162 831.743368569655 863.8067998117812 0 3 0
3529 37 2 0 -142.40439117863684 824.4671949691957 856.5333241996972 0 3 0
3530 37 13 0 -138.83415290075487 825.5999295880202 856.1123130780574 0 3 0
4679 49 13 0 -149.52824683703653 834.9537815586604 868.7702177086871 0 4 2
3526 37 1 0 -148.29296578529406 827.4703842775843 850.637320415683 0 3 0
3114 33 12 0 -155.6138146866548 840.7402980167849 865.0281911973966 0 -1 -3
1084 12 9 0 -136.90191666278187 836.3687482114107 859.2099798870609 0 2 3
5336 56 1 0 -144.39675959157847 824.3401857844485 864.1513079900616 0 0 0
4675 49 12 0 -146.86207834506493 839.2964170059331 860.3751243488359 0 4 2
3113 33 17 0 -156.60853603726179 843.5901505164745 862.7808004218531 0 -1 -3
1660 18 20 0 -145.88701366175954 841.9452170802574 848.2767369277692 0 -3 2
1659 18 12 0 -144.99070429930327 842.1774419162695 851.7114760819152 0 -3 2
4676 49 13 0 -149.98834784786044 840.3473385003853 862.3346302629469 0 4 2
1657 18 12 0 -150.6050924862493 842.9757071440001 854.029617706543 0 -3 2
1658 18 17 0 -147.21663068781723 841.4302159992944 854.471355742395 0 -3 2
1079 12 2 0 -153.6098781324413 831.610201253486 855.9915754515149 0 2 3
4680 49 9 0 -146.90436306026768 832.9077971572532 871.2649551969569 0 4 2
1656 18 12 0 -152.64345017993534 844.5624325952999 850.9863986140256 0 -3 2
1080 12 9 0 -151.24351855051188 833.7294625377918 857.745676619419 0 2 3
3535 37 9 0 -144.50171034511092 832.0994011530831 864.5376168995513 0 3 0
332 4 18 0 -151.92939406760414 828.6829930077979 868.5254778644999 1 1 -6
3537 37 1 0 -149.81655442309605 828.6778995046159 861.5246231452231 0 3 0
3536 37 2 0 -147.27511286782473 831.3347978421011 862.0468461799303 0 3 0
3538 37 9 0 -153.4433538031589 828.2449598023276 862.3205754482398 0 3 0
3539 37 2 0 -154.79580888735347 826.6739161240192 859.0624983380618 0 3 0
3534 37 6 0 -141.59361336738485 830.7480223921505 865.8417844307498 0 3 0
1082 12 12 0 -143.5756395597284 834.1548620982961 857.9069683831037 0 2 3
1083 12 18 0 -140.83460989474852 836.3518788253579 859.261564220358 0 2 3
1081 12 18 0 -147.34092033794545 833.5387090123506 857.1352650561149 0 2 3
1078 12 20 0 -154.9401571853651 830.8044234694644 852.6593107467194 0 2 3
4672 49 18 0 -141.29651048157137 836.6524627170153 868.5906035911843 0 4 2
4677 49 2 0 -149.3150603871189 840.496542067127 865.7819418276415 0 4 2
4678 49 12 0 -149.38817862441735 838.9179674377192 868.9633345826884 0 4 2
4673 49 9 0 -142.76919956422952 838.7388032617602 865.722087718291 0 4 2
3527 37 18 0 -146.09889984685697 826.6566762880777 853.7824293075591 0 3 0
4674 49 2 0 -144.91871948731327 837.1036186537008 862.66835012431 0 4 2
1077 12 12 0 -156.73045716978496 828.3607222859969 850.8105692163537 0 2 3
5337 56 20 0 -141.75181296755926 823.7393113220194 866.8220809552645 0 0 0
3118 33 18 0 -157.08814899715057 834.9846641192831 870.1253350815917 0 -1 -3
3540 37 12 0 -153.70438818650288 823.6869908457073 856.7447286903225 0 3 0
3197 33 2 0 -156.36027960302422 822.7432590743128 862.9778414414396 0 0 -3
3117 33 9 0 -156.74110982286922 832.5789230691583 867.1409660625606 0 0 -3
4671 49 12 0 -138.201711602149 834.3841566036857 869.2504754836363 0 4 2
1211 13 2 0 -142.15991517718498 844.6335724119065 863.5521997104632 0 1 -2
333 4 6 0 -149.06308956032842 826.5658250848378 869.6426718314174 1 1 -6
1210 13 9 0 -141.96593092185682 845.26226183244 860.0280773230245 0 1 -2
3531 37 12 0 -138.50189590687455 828.6611973108113 858.4802940006622 0 3 0
5136 53 6 0 -187.85770180328694 867.2913136586869 868.014369154339 0 -1 -1
372 4 1 0 -188.24749389644052 860.0722829626818 854.0362270239475 1 1 -6
370 4 2 0 -182.64329658518062 860.2087687345863 859.1966872221299 1 1 -6
5137 53 2 0 -186.4982910558248 870.0523065788132 865.5563957517343 0 -1 -1
5933 62 18 0 -180.5777067819669 867.6368047832337 870.2674645316699 0 -3 0
5141 53 17 0 -189.69137797177885 861.6320743830049 864.6796616353672 0 -1 0
375 4 17 0 -186.9970533857432 869.6047354536524 854.6867477927277 1 1 -6
5140 53 4 0 -191.3458953939976 864.3554602433384 862.3449484405667 0 -1 0
377 4 18 0 -182.80445472838719 869.1196608558527 848.5555789661717 1 1 -6
5139 53 8 -0.75 -190.3044476936827 868.2297891448133 862.9836837734571 0 -1 -1
374 4 18 0 -188.75075219075825 866.2662840976466 855.1324665899306 1 1 -6
378 4 15 0 -180.03488527137424 866.969792663578 848.7478975010287 1 1 -6
373 4 11 0 -188.679585126202 863.6591146674341 852.4493511719767 1 1 -6
381 4 5 0.75 -179.82835055013038 857.8594550031885 853.1353516098349 1 1 -6
369 4 17 0 -180.92005599074557 863.2933160194254 860.7529932529764 1 1 -6
371 4 15 0 -185.67691056750118 860.0501726477472 856.9402398327609 1 1 -6
368 4 12 0 -177.41732241977653 862.6469905945437 861.9326013275936 1 1 -6
383 4 6 0 -177.13979336697204 852.7966467390788 854.8708500321925 1 1 -6
382 4 10 0 -179.13717991863035 854.1384040404156 852.3292316348104 1 1 -6
384 4 2 0 -174.27176256049864 852.7623416039149 852.6821445855874 1 1 -6
385 4 9 0 -171.85104147231706 854.7696784534774 850.9373676153596 1 1 -6
386 4 8 -0.75 -171.95750795875676 858.294020942573 849.057599656425 1 1 -6
2936 31 17 0 -162.26753095344512 863.7629153945879 846.5797347078815 0 -3 1
2407 25 2 0 -168.79145445530696 845.6923297256631 850.4311326109797 0 -2 2
2406 25 17 0 -166.87594848701946 847.4784606003857 847.8177420365399 0 -2 2
2932 31 12 0 -170.7204769479726 870.2447834235397 855.792786051322 0 -3 1
353 4 6 0 -166.201953726648 848.1712454649745 863.9814891362935 1 0 -6
354 4 18 0 -162.74100524831616 846.4710322507249 862.8891502425614 1 0 -6
352 4 15 0 -164.6432003927462 847.2029080271637 867.2768687933589 1 1 -6
1456 16 1 0 -162.67750555873852 869.5628808640843 868.7059201158215 0 -1 -3
5087 53 9 0 -171.51195983222513 862.7608685919256 870.5103446272049 0 -1 -1
367 4 2 0 -175.95706345161327 865.8111122579369 860.4234343667953 1 1 -6
5086 53 6 0 -168.53031397548895 861.225919093099 868.5928847120942 0 -1 -1
379 4 2 0 -179.2075447209924 863.2860580608987 848.8680691545244 1 1 -6
356 4 1 0 -162.16950975734403 845.8040908887044 855.9412132399955 1 0 -6
380 4 9 0 -178.51656311436093 860.6318626292549 851.1507190496158 1 1 -6
2935 31 2 0 -164.9292321835033 864.8120427902617 848.777863732401 0 -3 1
1650 18 1 0 -158.07883890456122 854.3594225922094 849.1725262181986 0 -3 2
1651 18 20 0 -160.9629977687309 854.162719278228 846.66801803374 0 -3 2
5085 53 18 0 -165.50893944254994 862.9909111984824 867.3563905089206 0 -1 -1
5084 53 10 0 -162.5034503975624 861.0582827948894 866.5906341378861 0 -1 -1
5078 53 1 0 -164.37704262317754 856.0608886273026 870.392570999401 0 -1 -1
5079 53 18 0 -165.4651226964263 852.7982361189846 868.8896418691572 0 -1 -1
5081 53 2 0 -166.1559989491895 855.3978111601339 864.8129249518395 0 -1 -1
5082 53 13 0 -163.34288671961573 855.5065091794935 861.8783956625066 0 -1 -1
5080 53 17 0 -168.21694375399096 852.4804012136578 866.2107660425146 0 -1 -1
366 4 12 0 -172.54738186654035 866.8061212262046 861.9546133090756 1 1 -6
363 4 12 0 -171.6396672557283 859.9895158450697 858.0705509644127 1 0 -6
359 4 17 0 -168.01965423047932 850.1012451246285 858.0715016588779 1 0 -6
362 4 10 0 -172.94483691236096 858.0644772598502 861.0245816581756 1 0 -6
358 4 18 0 -165.67198999328681 850.1691929118314 854.8260277831819 1 0 -6
360 4 9 0 -170.48892849793822 852.2018203870522 859.5724214046835 1 0 -6
364 4 18 0 -172.08326062343687 863.6018801519688 856.7254012698393 1 1 -6
365 4 18 0 -170.14473284372923 865.2763027863725 859.4801699324836 1 1 -6
2933 31 13 0 -169.76693828070017 868.2390604616962 852.5397753502781 0 -3 1
361 4 2 0 -173.27881634351866 854.0025535631463 861.7785232430327 1 0 -6
357 4 2 0 -165.88124027264223 846.3733789878663 854.68309127207 1 0 -6
2934 31 9 0 -168.07822015450864 866.1784518249357 850.2500713634279 0 -3 1
5083 53 12 0 -162.47610112535395 859.3058767200064 863.2057151652571 0 -1 -1
3109 33 10 0 -158.43133224185658 851.4069863893028 863.7559627756156 0 -1 -3
5934 62 9 0 -179.04800894532002 868.3403155121647 866.914700373638 0 -3 0
5421 56 18 0 -158.31755651601222 865.4826961220605 854.7044726466175 0 -1 -1
3107 33 17 0 -158.1283896902445 856.7923259473545 866.5611341732109 0 -1 -3
1668 18 12 0 -135.63645468021338 858.7453309338215 851.3628502343397 0 -3 2
4696 49 10 0 -147.94445837785653 859.3449665560888 870.080778678177 0 4 2
1666 18 9 0 -139.05179979848168 853.8582259472159 854.0042626177338 0 -3 2
1188 13 9 0 -136.86866871685328 864.998510518622 870.4463379804431 0 1 -2
5071 53 6 0 -149.37220760936117 847.1551329889687 871.0464751794294 0 -1 -1
5415 56 15 0 -146.84151723733945 860.9946094603796 847.4399639093583 1 -1 -1
5416 56 1 0 -147.72061336979985 857.9945681243867 849.2796988880447 1 -1 -1
5417 56 11 0 -147.72461581373088 856.7837219619131 852.8413119364842 1 -1 -1
1189 13 2 0 -139.24374398066348 862.1104118323922 869.2772701514679 0 1 -2
1190 13 17 0 -140.3029388869765 861.531493039533 865.94910032021 0 1 -2
4709 49 12 0 -135.91349100864534 847.6232190076552 853.8997659698333 0 6 2
1197 13 9 0 -147.34652960217437 869.2116746149023 864.3533310521482 0 1 -2
1663 18 18 0 -142.38275106172904 847.5172379349417 846.8495012802651 0 -3 2
3112 33 12 0 -153.9925011478038 845.6277114253293 860.5756908879259 0 -1 -3
5555 58 17 0 -141.51018853745603 858.4078709699328 848.3070258761978 0 -1 3
1655 18 12 0 -155.77378576879892 845.6644717055708 848.5703180379464 0 -3 2
5551 58 12 0 -143.52558553388246 869.7573495964172 852.3077602951083 0 -1 4
5422 56 15 0 -156.28192057131233 868.7229233213873 854.6158041790803 0 -1 -1
5550 58 2 0 -140.35267981006675 870.1938223809493 850.2198755765013 0 -1 4
1200 13 17 0 -152.22762942850622 864.8097238840189 861.3289371813771 0 1 -2
1191 13 6 0 -141.04622628180948 865.2379876931158 866.063224911036 0 1 -2
5426 56 10 0 -148.3637141656243 867.6165290407162 848.4035929574023 0 -1 -1
3110 33 12 0 -156.7838977742673 851.8002785083808 860.4759221202531 0 -1 -3
1192 13 12 0 -138.7478344583118 866.7793679096233 863.2558094006142 0 1 -2
5552 58 13 0 -142.31477276914956 866.5583556239368 854.1929040258486 0 -1 3
4694 49 13 0 -142.21217547317755 855.1198407480422 869.8130194605263 0 4 2
5414 56 2 0 -145.2079807288673 864.5935706062032 847.327114440555 1 -1 -1
1193 13 12 0 -140.10003540095312 869.4236664451715 861.1816473403508 0 1 -2
1664 18 12 0 -139.6609615580286 849.0561404075637 849.0636998700079 0 -3 2
1665 18 18 0 -140.9491121543515 851.1491686540079 851.915267683602 0 -3 2
1212 13 12 0 -139.64290615714333 846.7922257419236 866.2633510124507 0 1 -2
4695 49 12 0 -144.5776292123964 857.4691708506044 868.5713075126936 0 4 2
3106 33 20 0 -155.47664473861448 858.2847479183305 868.8314369894055 0 -1 -3
3111 33 12 0 -153.79963769133963 849.4273695720278 860.6382872155841 0 -1 -3
1667 18 2 0 -136.90678098626685 854.811144799526 850.6886418340031 0 -3 2
5423 56 2 0 -153.23254391407798 868.4016868747742 856.768171379872 0 -1 -1
1201 13 2 0 -154.20452454220796 862.2711393118161 859.6077440453101 0 1 -2
1199 13 18 0 -153.1986786269704 868.2641081278599 862.2291697050333 0 1 -2
1208 13 2 0 -147.07866771553515 847.0033089168708 862.3342129578797 0 1 -2
5556 58 6 0 -143.55602124926534 855.5061371700953 846.6193821458987 0 -1 4
4697 49 18 0 -147.240908373939 862.9324442182174 869.1241769653296 0 4 2
4701 49 1 0 -140.28339912500135 859.5484812202405 858.972801823833 0 5 2