LAMMPS data file via write_data, version 23 Jun 2022, timestep = 70000

4374 atoms
40 atom types
3645 bonds
1 bond types

-250 250 xlo xhi
108.09518942916839 215.90481057082908 ylo yhi
108.09518942916839 215.90481057082908 zlo zhi

Masses

1 131.199997
2 57.049999
3 128.199997
4 101.099998
5 156.199997
6 71.08000199999999
7 115.099998
8 129.100006
9 163.199997
10 99.06999999999999
11 113.199997
12 128.100006
13 186.199997
14 147.199997
15 87.08000199999999
16 137.100006
17 114.099998
18 97.120003
19 103.099998
20 113.199997
21 131.199997
22 57.049999
23 128.199997
24 101.099998
25 156.199997
26 71.08000199999999
27 115.099998
28 129.100006
29 163.199997
30 99.06999999999999
31 113.199997
32 128.100006
33 186.199997
34 147.199997
35 87.08000199999999
36 137.100006
37 114.099998
38 97.120003
39 103.099998
40 113.199997

Atoms # full

1544 258 12 0 -235.4029651720684 128.76599188308987 115.62717089946685 1 0 0
1543 258 9 0 -233.17321382576245 126.28163824550472 117.19149715245291 1 0 0
3657 610 16 0.375 -232.6935736266475 113.67243689499523 129.0177052678723 1 0 0
3656 610 12 0 -231.23334618259153 117.43479116363025 128.95143610662103 1 0 0
163 28 9 0 -223.2639306309872 119.22641991322202 119.58950454120883 1 0 0
164 28 12 0 -221.2163845801722 121.22183479187399 122.19821021831407 1 0 0
165 28 16 0.375 -219.89322803301647 120.62947411386818 125.87966955388433 1 0 0
166 28 12 0 -222.4421384883512 118.33286445469261 127.83335456012149 1 0 0
168 28 9 0 -227.28169657205208 113.867602841891 123.87501691438142 1 0 0
167 28 16 0.375 -225.0264585623649 116.30036398886243 125.64022154741238 1 0 0
655 110 9 0 -203.11443077842262 110.81561051738693 109.55778554065053 1 0 1
3667 612 9 0 -36.143580034706055 112.87388997417298 110.29117341456515 0 -1 0
3668 612 12 0 -36.281787396341095 109.56989183010731 108.21972498631496 0 -1 0
1 1 9 0 61.86475761421874 109.34547889808142 127.53886772146053 0 0 0
2048 342 12 0 66.15324962031825 109.22587056025031 111.64321522355685 0 1 0
2049 342 16 0.375 69.7124475141618 108.77365604351873 112.66366391468985 0 1 0
2550 425 9 0 74.06158390756084 128.10637711488812 129.30649244093 0 0 1
3666 611 9 0 101.6260595285378 121.10883558111107 112.54534488510564 0 0 0
3661 611 9 0 107.73507701475609 124.09463238573721 119.76649993984132 0 0 0
3662 611 12 0 104.59500195031843 123.66024315280063 122.36542293929958 0 0 0
3663 611 16 0.375 101.38783757332821 121.80855853626103 121.5200158227541 0 0 0
3664 611 12 0 98.40630555865542 123.12231009697634 119.25723160588251 0 0 0
3665 611 16 0.375 100.21897087575223 122.5091705839449 115.77407449802867 0 0 0
3371 562 16 0.375 125.53672835273227 115.37050616083413 120.82366559879193 0 0 0
3372 562 9 0 125.06966411407357 117.99799226222291 123.86908356539818 0 0 0
3370 562 12 0 128.29523400179065 115.12329811436788 118.17635942826087 0 0 0
3369 562 16 0.375 127.49350746073061 118.42070566879029 116.61415866856794 0 0 0
3368 562 12 0 129.59160425611518 119.80624938205618 113.83249504985783 0 0 0
549 92 16 0.375 111.80547651051917 120.87932992521071 113.37442131505539 0 1 0
550 92 12 0 114.49441831942713 121.31106269806082 110.47490907514427 0 1 0
547 92 9 0 117.00449178378271 123.2801475279255 117.22809729712002 0 1 0
548 92 12 0 113.99531074363821 120.95893618291906 116.66342103090876 0 1 0
2045 341 16 0.375 119.30181164991106 125.29376284513349 108.36775832795625 0 0 1
2044 341 12 0 122.74832430069915 126.85540482543249 109.85722778075532 0 0 1
2043 341 16 0.375 124.94465798912289 123.77930844120549 109.82047558854401 0 0 1
2732 456 12 0 121.69425197566582 111.96206140727166 128.04201307112135 0 0 0
2731 456 9 0 120.494821916593 112.80504530096478 124.44818160882998 0 0 0
3367 562 9 0 131.9734743026726 121.98511000510754 111.69970334244422 0 0 0
2952 492 9 0 136.884757566868 121.75078803737105 117.04811773501451 0 1 0
1386 231 9 0 137.08066158700362 123.03875120865378 124.85643445135847 0 0 0
2951 492 16 0.375 135.1448458546541 118.92205158092412 118.4830637458806 0 1 0
2950 492 12 0 137.53021039673345 116.55192135641803 120.46337082879505 0 1 0
2948 492 12 0 134.15681137315102 117.1356530474573 126.1947641967343 0 1 0
2949 492 16 0.375 137.0597817517924 115.13333386961605 124.01392433828487 0 1 0
626 105 12 0 137.4891492487747 108.20183395683907 115.2004883307595 0 0 0
625 105 9 0 139.1327639234499 109.579025505197 118.70460067529456 0 0 0
1382 231 12 0 148.22706782575034 121.36905597267231 116.08781239215719 0 0 0
1383 231 16 0.375 146.1732452215114 122.06366891531124 119.35458612709122 0 0 0
3008 502 12 0 133.0746131960116 108.40771805438123 110.94955627082447 0 0 1
3009 502 16 0.375 130.3487836011355 111.07779036715709 109.34820946005307 0 0 1
3010 502 12 0 130.1910283111893 114.71251857081681 110.00720949962995 0 0 1
1227 205 16 0.375 145.4924008076623 112.39073934849357 122.65423193076595 0 0 0
1229 205 16 0.375 146.6961738279511 118.91037782301592 124.42251877249097 0 0 0
1230 205 9 0 146.6910482733103 118.88324898951677 128.19737660537479 0 0 0
1228 205 12 0 145.1035930426401 116.21717362847306 122.18159163742313 0 0 0
1385 231 16 0.375 140.12987160533737 122.64064612876186 122.89059769149358 0 0 0
1384 231 12 0 142.93263922668066 123.43432228306813 120.68313200177752 0 0 0
919 154 9 0 145.02449015278555 116.51052480281471 109.54633727265607 0 0 0
3011 502 16 0.375 133.4867400615126 115.57761927787699 112.27709643139885 0 0 1
1583 264 16 0.375 147.50994431361784 126.56757088344776 123.99335928371528 0 0 0
3012 502 9 0 137.06174683749023 116.48108444691867 110.9008956425265 0 0 1
564 94 9 0 148.0030141495275 112.47880439654055 115.59507018307754 0 1 0
1381 231 9 0 149.63196338049326 124.06719631598173 113.7990161314314 0 0 0
1226 205 12 0 143.0821614806395 111.79680182277566 125.70573213247482 0 0 0
1225 205 9 0 140.67382768291608 110.57684185590517 128.17537720314908 0 0 0
2947 492 9 0 130.56503402750755 115.83507882413049 127.7304118395282 0 1 0
2437 407 9 0 149.43649097494668 108.28920580502708 126.0600560609137 0 0 0
1582 264 12 0 144.29620625280143 128.64403574973068 123.53035619206081 0 0 0
1580 264 12 0 147.63088733226542 129.60846219032496 117.60903402413567 0 0 0
1581 264 16 0.375 144.67361962260824 129.63256961969677 119.92546344170064 0 0 0
860 144 12 0 149.67597970767258 110.03269972852168 109.88089401097838 0 0 0
1324 221 12 0 154.98788045832154 118.3617366741353 124.98280380288952 0 0 0
1325 221 16 0.375 154.2009091263693 121.32251603860449 122.41923947768115 0 0 0
1326 221 9 0 155.06389889368867 120.09184767471066 118.81293764055008 0 0 0
2613 436 16 0.375 163.33548134316547 121.46304407748026 129.543608933296 0 0 0
1584 264 9 0 151.00616572196972 128.80143376162636 123.48721470732714 0 0 0
2614 436 12 0 166.72395945133243 121.68214791813875 127.3695788173592 0 0 0
546 91 9 0 162.37041298437728 115.77643172874141 125.40366542014122 0 1 0
862 144 12 0 156.88383132555452 111.52603058463808 110.6589336354299 0 0 0
863 144 16 0.375 155.86545566720932 110.1527086669355 113.93367824527506 0 0 0
864 144 9 0 156.3070593826248 109.34251383409247 117.59477857908372 0 0 0
1392 232 9 0 157.94965000490194 121.62884394767788 108.71979179685435 0 0 0
1391 232 16 0.375 159.47761643801962 118.12282228712363 109.25082968012867 0 0 0
562 94 12 0 152.74797017763936 116.24627130997318 113.88300859748009 0 1 0
563 94 16 0.375 151.3077803381353 113.7055272197539 116.44121840243385 0 1 0
561 94 16 0.375 152.86211238355807 117.53291355957042 110.24783622687968 0 1 0
1224 204 9 0 163.0649615345163 111.49404489788571 115.06732174699556 0 0 0
1836 306 9 0 161.59975100648586 124.02240992157239 116.00319822882429 0 0 0
1835 306 16 0.375 160.40846871975648 126.32965467412812 113.02171795588048 0 0 0
1223 204 16 0.375 165.07099434941665 113.63905619841846 117.2596237933285 0 0 0
1222 204 12 0 168.70325508761556 112.99536697109835 118.22517575133504 0 0 0
2256 376 9 0 169.96399939385097 113.66410486129305 125.09681483198916 0 1 0
888 148 9 0 167.55121900774128 128.0726794406349 113.71550086462354 0 0 0
545 91 16 0.375 161.07596224708539 112.0418787037957 126.53211124001989 0 1 0
861 144 16 0.375 153.3488870607078 110.95413298674356 109.35019516987104 0 0 0
544 91 12 0 158.90406589817482 109.35814884749544 125.06373072956274 0 1 0
1323 221 16 0.375 153.82854297082346 116.71018875147084 128.315691609689 0 0 0
3090 515 9 0 160.24929180166467 128.22328504715276 129.49942537062162 0 0 0
3089 515 16 0.375 157.05456384564428 128.5914281983671 127.76665189453328 0 0 0
2438 407 12 0 152.16366927013993 108.86344124886269 128.94576856026939 0 0 0
1834 306 12 0 159.64150260398105 128.37964493780834 110.25847536584206 0 0 0
1782 297 9 0 164.4985160332023 123.98139195009409 108.77705952375717 0 1 0
1220 204 12 0 169.3474301552884 109.99702939679183 112.42531259939209 0 0 0
152 26 12 0 173.3283533182347 122.17104928156965 118.83127066555356 0 0 0
153 26 16 0.375 170.55045413359198 121.32407692384376 116.1578736043825 0 0 0
2616 436 9 0 172.90575349293113 123.50052697419761 129.15140784199295 0 0 0
155 26 16 0.375 175.18388525803425 123.67216417225292 111.6618314321919 0 0 0
154 26 12 0 171.34848926580338 122.76867462707445 112.37212864798119 0 0 0
2615 436 16 0.375 170.1089646449145 123.01875846505769 126.54274407779353 0 0 0
156 26 9 0 176.44975134158847 124.68763793081463 108.61854890783374 0 0 0
1297 217 9 0 180.61256587523883 123.77628197167911 126.09596489824997 0 0 0
1221 204 16 0.375 170.74185532211558 110.19636786909952 116.52058535658256 0 0 0
1298 217 12 0 181.98317889549475 126.96172573455735 124.67954831593256 0 0 0
1662 277 9 0 175.93519146571396 111.59272644847235 120.15448562561964 0 1 0
490 82 12 0 183.2633086285491 115.59295025187225 113.03058068382289 0 1 0
492 82 9 0 175.9592814981988 116.98235931295528 114.70780456503775 0 1 0
491 82 16 0.375 179.63982579704185 116.21372790485349 113.7959632995858 0 1 0
489 82 16 0.375 185.7970896707872 117.78327276350818 110.85536410563407 0 1 0
488 82 12 0 189.20041438477116 117.775435837415 109.59005866833489 0 1 0
1786 298 12 0 189.87009462524986 127.3665782655905 108.55226546108311 0 1 0
1661 277 16 0.375 177.27985199335 110.90960525438813 116.70399270630548 0 1 0
1660 277 12 0 178.47430847712295 109.83447995474933 113.17392369344937 0 1 0
51 9 16 0.375 185.78121368655317 116.9065577109002 126.38954112804996 0 0 0
50 9 12 0 185.07752754158705 118.12328904486172 123.10321588096122 0 0 0
49 9 9 0 181.69809780222312 118.69199295988494 121.09798363635153 0 0 0
4229 705 16 0.375 186.3987211536711 112.11309803671826 117.6013818168148 0 0 1
771 129 16 0.375 186.96632565650003 109.92763775189971 110.24090612156931 0 0 0
2255 376 16 0.375 171.78028924835476 116.76256919759881 126.72211724828857 0 1 0
1659 277 16 0.375 178.76100437777538 108.64210519276557 109.69089324393317 0 1 0
1219 204 9 0 170.04677966738086 108.69220818271074 109.1375929155545 0 0 0
4230 705 9 0 183.29420670680372 110.58720042239841 119.69166374089248 0 0 1
4228 705 12 0 189.23009923170804 110.90848484501188 115.91579609910507 0 0 1
1299 217 16 0.375 182.43699776257276 129.48927462489561 121.95116693318792 0 0 0
151 26 9 0 176.40405849485467 124.4147995351359 119.31344408015114 0 0 0
1301 217 16 0.375 183.5702173373417 127.77195775421734 116.6954094481483 0 0 0
1302 217 9 0 183.01563717321758 127.04851826580808 112.72415057950317 0 0 0
397 67 9 0 182.89149553384058 110.48620987240595 127.51314006519092 0 1 0
2602 434 12 0 188.05498616484766 128.53899064297227 127.64942047922598 0 0 0
32 6 12 0 176.59971731779035 114.80435776802526 108.55799930851654 0 0 0
487 82 9 0 191.79330794072294 116.74406842351863 112.11567098033052 0 1 0
4227 705 16 0.375 191.13035593558587 108.26095952468592 118.41859949762006 0 0 1
1787 298 16 0.375 192.71832034751858 125.1624389798678 109.27157398749407 0 1 0
1788 298 9 0 196.35557950115194 126.53192664953247 109.15213071049473 0 1 0
595 100 9 0 203.20241728537906 113.57810716824115 120.95404431352802 0 1 0
596 100 12 0 206.57797128054904 115.20892362512467 121.26723257134968 0 1 0
597 100 16 0.375 208.43517014583423 117.9595427800183 120.4693436221712 0 1 0
599 100 16 0.375 205.9674217555572 122.57375662337652 119.24555038597967 0 1 0
598 100 12 0 209.36965739468795 120.7980170520629 118.2535817868151 0 1 0
1972 329 12 0 202.9968159422767 127.47049472684495 127.53409711821719 0 0 0
1971 329 16 0.375 204.59576827912016 124.18897336752303 127.42405298146433 0 0 0
600 100 9 0 202.31903203160164 121.32964104675939 119.5702817121503 0 1 0
26 5 12 0 192.3112999913664 111.83655807844468 129.07566111673782 0 0 0
1970 329 12 0 207.66327227207609 122.63610966243773 126.02131876080453 0 0 0
649 109 9 0 197.50951053700655 109.54963279700691 122.92323619487303 0 0 0
30 5 9 0 203.49103580723943 116.1836882046943 127.82146879807422 0 0 0
3644 608 12 0 190.9801742230128 129.2397173019922 119.30027804885954 0 0 0
3645 608 16 0.375 194.1745971602868 127.60805783753939 118.80220927215144 0 0 0
409 69 9 0 205.23749211971372 108.17308180805937 126.2392543991218 0 0 0
703 118 9 0 213.1971926941344 118.21098612189412 126.73787285288277 0 0 0
704 118 12 0 211.35802421124987 115.0009803267033 125.76620313575008 0 0 0
705 118 16 0.375 212.22232336231457 112.29469164064403 123.34990133897753 0 0 0
1128 188 9 0 211.29549226048232 113.03536321440731 116.59756731231907 0 1 0
1127 188 16 0.375 214.32467072507535 111.02620274820944 114.66112631094569 0 1 0
706 118 12 0 215.55681307202576 111.48535004619119 122.05509070367954 0 0 0
707 118 16 0.375 216.6885843497025 114.72373763098979 121.09926030509055 0 0 0
708 118 9 0 217.22712598032123 117.52975726142579 118.41979448901591 0 0 0
1375 230 9 0 222.90787278755624 109.43012642308211 123.00484311439324 0 0 0
1969 329 9 0 210.59529202557033 123.80075481192084 123.86921667961192 0 0 0
1376 230 12 0 223.02748732102967 111.7047104026022 126.11699951445998 0 0 0
1495 250 9 0 217.9733086032195 123.98102756881684 123.78347788304137 0 0 0
1496 250 12 0 219.0604817339314 125.01344779062319 120.71429323671542 0 0 0
3223 538 9 0 227.2957711806488 120.27606381530904 127.47130626975652 0 0 0
1377 230 16 0.375 221.1770579198039 115.11000108613392 127.03161334406803 0 0 0
3224 538 12 0 224.90540526842807 122.40349770432297 129.2309613948509 0 0 0
838 140 12 0 227.28178143722064 127.01514581954356 123.1226353033543 0 0 0
839 140 16 0.375 228.73378663417589 129.3440998118692 126.3134819179026 0 0 0
837 140 16 0.375 228.42080243354238 124.0833482828329 121.03164999411143 0 0 0
1497 250 16 0.375 217.92722695244913 127.84823887482521 118.08022203499279 0 0 0
1498 250 12 0 214.5483725153607 128.78165198530397 119.87922895195032 0 0 0
1316 220 12 0 218.7193662008141 128.4587364801512 129.64094813007418 0 0 0
1126 188 12 0 216.70237604475582 110.62485985866363 111.79962949412975 0 1 0
1125 188 16 0.375 215.21384258905172 111.48122387953312 108.34894259417707 0 1 0
835 140 9 0 234.1680674907027 123.33681508011644 124.24129574005727 0 0 0
836 140 12 0 231.42970983741955 122.09959896618906 121.80349266088605 0 0 0
2864 478 12 0 240.7915054469463 124.64244606708998 124.7898841406188 0 1 0
2863 478 9 0 241.30074116811062 120.9247499394602 124.39304400096199 0 1 0
2865 478 16 0.375 241.70824144009313 126.45858790267953 128.2244270259605 0 1 0
1545 258 16 0.375 -238.68751606707377 130.54124470032733 114.55936989763148 1 0 0
1547 258 16 0.375 -235.82176295585916 130.7041511751252 109.31602765376871 1 0 0
1548 258 9 0 -232.0287177705273 129.73273093338022 109.83257769247685 1 0 0
1546 258 12 0 -239.25665323679047 131.10742481178167 110.75584282432851 1 0 0
1865 311 16 0.375 -35.510928281026786 147.4087639886605 117.42540095992103 0 1 1
1863 311 16 0.375 -31.582348957969806 147.95926670679842 113.53339342081249 0 1 1
1864 311 12 0 -34.47003316367911 145.46716387746068 114.25024856021606 0 1 1
1866 311 9 0 -38.06613676693589 147.84841674554684 120.21594963979545 0 1 1
1262 211 12 0 -5.442515907289614 151.18353993576164 128.84459839858698 0 -1 -1
735 123 16 0.375 48.956572131821915 133.0197608279766 120.18219478948714 0 0 0
738 123 9 0 43.05124693114995 133.4433226062905 124.3064498668288 0 0 0
737 123 16 0.375 43.85563734601624 129.8133296256359 123.25308460434924 0 0 0
736 123 12 0 47.66496648350092 129.96956218465434 122.37734529264257 0 0 0
734 123 12 0 50.62865756536135 135.6575195253184 117.59853305878224 0 0 0
733 123 9 0 53.07758430514942 137.9102276504263 118.61836294990927 0 0 0
2549 425 16 0.375 77.44630915676336 129.76029912355943 129.24586430092168 0 0 1
493 83 9 0 105.12086644719491 144.60885396298295 124.46424444086362 0 0 0
494 83 12 0 107.28905221225607 146.84178740412472 126.91095667345063 0 0 0
495 83 16 0.375 105.48987278436827 150.09640759139245 127.90979185024935 0 0 0
3721 621 9 0 109.7175091754776 150.73582208062336 121.16732429939907 0 0 1
1459 244 9 0 110.22220970594363 137.87414420142372 122.28649253650795 0 0 0
1460 244 12 0 113.74356303113345 139.58414793959358 121.82020297004811 0 0 0
1461 244 16 0.375 114.81664439375032 141.48140793911298 118.62358457797833 0 0 0
1464 244 9 0 122.9580377068411 142.79712003663082 123.185568390146 0 0 0
1462 244 12 0 118.56124029219299 141.20600988036773 118.22710304675195 0 0 0
1463 244 16 0.375 120.31059152819194 143.81268177648488 120.62025812186232 0 0 0
150 25 9 0 110.52809674674754 133.47112482243338 127.82870304528439 0 0 0
3019 504 9 0 147.69535301137407 133.43838860827876 127.57255098804072 0 0 0
726 121 9 0 135.64522166523827 141.10176260942765 127.04692018489838 0 0 0
3791 632 16 0.375 145.04971324528603 148.99535884749818 124.3697401917699 0 0 0
135 23 16 0.375 139.32961841734144 149.6933542997774 116.80425968578388 0 0 0
134 23 12 0 140.79848273533077 148.1846984457215 119.92047144669411 0 0 0
133 23 9 0 138.37177792737015 146.26237708646028 122.2344313656308 0 0 0
3364 561 12 0 144.81012680844339 141.75109001741566 119.01901768694024 0 0 0
3792 632 9 0 147.03280332868107 145.79866912259638 124.57215213349646 0 0 0
136 23 12 0 136.23695508614975 149.32895063480635 114.954210272949 0 0 0
137 23 16 0.375 137.07483691372394 145.86244614785534 113.89404430891516 0 0 0
3365 561 16 0.375 145.79639882149843 140.22537117283508 115.70873673464209 0 0 0
3366 561 9 0 145.40060287924655 137.04351177795698 114.11184010123746 0 0 0
3363 561 16 0.375 145.41292603938905 139.09316250455498 121.80192309827912 0 0 0
3362 561 12 0 142.5739119000606 136.26468802662671 123.32744878288425 0 0 0
3361 561 9 0 139.98008436935092 135.46008449160203 120.58140869901509 0 0 0
3555 593 16 0.375 135.1201506693218 149.42346117480375 128.30590143081727 0 1 0
725 121 16 0.375 138.70176042401872 142.31148573468107 128.2333314204541 0 0 0
1279 214 9 0 146.02421817948212 130.74939948067356 111.18018316207358 0 0 0
138 23 9 0 138.65945815406002 142.5582006669498 115.11957685617153 0 0 0
1579 264 9 0 150.74833790869195 131.232397294015 116.67671055844495 0 0 0
249 42 16 0.375 155.16954415067826 145.59983007755363 109.87638500156548 0 0 0
1952 326 12 0 161.07981029138512 138.10312074898152 117.59001077274779 0 0 0
1951 326 9 0 164.24175291761648 136.1005378077137 117.863077372503 0 0 0
1874 313 12 0 162.149118146933 139.65973028344524 108.97101533506651 0 0 0
1953 326 16 0.375 158.0615163520404 139.85172126027905 118.52907653050875 0 0 0
1873 313 9 0 162.28488665759133 136.54038597852272 111.41227779827305 0 0 0
250 42 12 0 157.5235196865372 148.03205289725028 111.51807365638201 0 0 0
3132 522 9 0 164.37288717419207 143.64929392724588 113.96069258094576 0 0 1
1955 326 16 0.375 154.7765374672747 146.5413217730107 119.51016179506178 0 0 0
1954 326 12 0 156.60481766301461 143.4342162356463 117.89876240717064 0 0 0
251 42 16 0.375 157.6267231727199 149.9884600350878 114.74225101172809 0 0 0
1524 254 9 0 162.56418533667403 142.79488254826393 123.22622685054772 0 0 0
1523 254 16 0.375 162.60184496463307 146.59857175567797 122.8900949897235 0 0 0
842 141 12 0 167.7434513906315 137.43560966883913 125.97420396738923 0 0 0
1699 284 9 0 155.6175191471053 141.13327866989917 125.02488400220659 0 0 0
3313 553 9 0 169.93301785795913 146.55965177999315 122.14239335347267 0 0 0
1956 326 9 0 153.8902149540715 149.5213366418082 121.93718222743614 0 0 0
3131 522 16 0.375 166.8192070432452 146.75270274192133 113.62152594161805 0 0 1
1522 254 12 0 163.30017203843627 149.89572884888344 125.16702444015237 0 0 0
3130 522 12 0 167.16386583158214 150.33272461309267 112.59259481625821 0 0 1
841 141 9 0 163.974799530631 136.6122796288508 125.60540355461283 0 0 0
1700 284 12 0 155.20463505684293 144.30755508839147 127.26427794100088 0 0 0
1701 284 16 0.375 156.75330553621077 146.57892860199158 129.59444961647287 0 0 0
885 148 16 0.375 169.44518310783093 134.79934684605226 110.52013588627725 0 0 0
248 42 12 0 155.28118519914534 141.97396509622493 110.69288869780983 0 0 0
247 42 9 0 152.74716165941268 140.03854870365868 112.99102798792151 0 0 0
1833 306 16 0.375 158.0758041616144 131.7593450603448 109.39336632315609 0 0 0
1785 298 16 0.375 189.20667159718005 130.8836995672837 109.2821169703693 0 1 0
845 141 16 0.375 176.51928639823262 133.6856776256471 124.77712048144069 0 0 0
3314 553 12 0 173.5381346304053 147.20808919947245 120.66324124540728 0 0 0
844 141 12 0 175.13286721730015 136.82944113133394 126.09112103442673 0 0 0
843 141 16 0.375 171.37207397881068 136.55245966087847 125.8936572173625 0 0 0
1784 298 12 0 185.82014108173047 132.35325813996673 108.74243409001494 0 1 0
3643 608 9 0 188.99835535419007 132.4017731143082 119.29094130194531 0 0 0
1783 298 9 0 183.88222910203098 135.00844833001838 110.88225864391055 0 1 0
1300 217 12 0 181.38087565308626 130.33401409543217 118.40770922713853 0 0 0
846 141 9 0 175.73179120507052 129.79881650869305 125.02211137778168 0 0 0
632 106 12 0 174.55147171233267 141.40973288307654 113.24195162740924 0 0 0
947 158 16 0.375 189.27575451093966 141.36175746495277 129.58765019842107 0 0 0
948 158 9 0 188.23801214066015 141.53748309178044 126.07804951257252 0 0 0
4049 675 16 0.375 182.61178858693816 146.7596804270237 122.62048079604956 0 0 1
4046 675 12 0 186.6958631987595 147.82607532321705 114.6675584236861 0 0 1
4048 675 12 0 183.7714958371284 144.44411634750728 119.61211511153803 0 0 1
4045 675 9 0 188.54095498453023 148.1724741357612 111.36016724870667 0 0 1
4047 675 16 0.375 185.7310182234145 144.6292276203182 116.44084184538102 0 0 1
4050 675 9 0 184.1103478224043 150.06860725797927 122.59660819609711 0 0 1
2563 428 9 0 188.64789970562862 141.19332270231007 112.46742736107954 0 0 0
631 106 9 0 170.85439952876123 141.4365609301936 111.9855856771974 0 0 0
2600 434 12 0 186.58140048266222 134.16397962512386 128.78318370280323 0 0 0
2601 434 16 0.375 186.0100202847103 131.7196508943737 126.08437730137389 0 0 0
3315 553 16 0.375 173.76278198862414 150.32110293233697 118.24181137168969 0 0 0
1770 295 9 0 177.40737533654016 142.2283552570284 128.84819312055254 0 1 0
887 148 16 0.375 170.12410882004386 130.49645926499255 114.91640844002346 0 0 0
886 148 12 0 170.37283733910022 134.5608945187043 114.21056443212082 0 0 0
633 106 16 0.375 176.74963914814614 144.58698281787963 113.9671671659114 0 0 0
634 106 12 0 180.12295563875773 146.21204090514573 113.64130864327551 0 0 0
635 106 16 0.375 181.17967986224483 146.48282798580487 110.04398895944564 0 0 0
3646 608 12 0 197.09205546757497 130.22031538890673 118.56370794336854 0 0 0
2503 418 9 0 200.78834477711675 136.84076933082682 109.6432860264822 0 0 0
1973 329 16 0.375 203.79123229649613 130.1032043084871 125.13606856309201 0 0 0
1974 329 9 0 201.67724999124624 133.30916947606468 124.9070083439649 0 0 0
2564 428 12 0 191.04099155700874 138.44904913617899 114.49660811164111 0 0 0
2216 370 12 0 193.97804134529684 140.2261138258138 108.3093902108763 0 0 0
3648 608 9 0 199.37607617081107 136.08626270376865 116.05427323471967 0 0 0
3647 608 16 0.375 199.97165976060447 132.93523147199107 118.1754125769164 0 0 0
2565 428 16 0.375 193.2921325732428 138.04899739268114 117.79100272907432 0 0 0
2566 428 12 0 195.61083568867704 139.0874302520523 120.98037330376005 0 0 0
2567 428 16 0.375 195.15517281038737 135.90813678095094 122.88070352741985 0 0 0
2568 428 9 0 194.16368101446 133.02636821022892 124.79763131634189 0 0 0
3173 529 16 0.375 205.46444578750535 142.5784314793248 108.24956996330813 0 0 0
2215 370 9 0 195.48890489620297 143.63604613171236 109.37728333995207 0 0 0
2382 397 9 0 195.74493957632006 144.89274570884615 128.10584943987837 0 1 0
2381 397 16 0.375 196.21413177274997 141.71476702278898 126.49457909929794 0 1 0
1537 257 9 0 196.46112829894076 150.12621287111108 108.49424014544825 0 0 0
3172 529 12 0 205.97796399955593 142.11141317481136 112.3105290690663 0 0 0
3171 529 16 0.375 203.3223885355915 142.72698913121366 115.00490443145212 0 0 0
3170 529 12 0 205.0003349932093 140.1191730618872 117.65995334141662 0 0 0
1482 247 9 0 197.06611875323296 150.35365536203773 118.21923357312399 0 0 0
3169 529 9 0 204.4669031068009 138.74247435306336 121.01435713293347 0 0 0
1481 247 16 0.375 198.82666838192145 147.54431870920038 119.85423428153939 0 0 0
1480 247 12 0 199.99852105686287 144.35509951670326 121.32526333752593 0 0 0
1479 247 16 0.375 202.6895158742657 144.8409454297947 124.1713190842307 0 0 0
1478 247 12 0 204.22131908740616 142.90827590491153 126.8873775454095 0 0 0
510 85 9 0 207.82833092166965 147.26401282687567 116.61325736953543 0 1 0
508 85 12 0 208.89098921350035 147.22779233179554 124.51069222569895 0 1 0
509 85 16 0.375 208.24120816728754 147.92662462453708 120.46441928180568 0 1 0
1477 247 9 0 207.23167397658125 140.71718678050604 126.85878877868136 0 0 0
2380 397 12 0 197.89349326409072 138.76676942274233 128.07844787152698 0 1 0
1500 250 9 0 211.47044166566135 131.3256421360138 125.68989867809621 0 0 0
3350 559 12 0 214.95219502752852 139.54939796354213 127.27750261657346 0 0 0
3351 559 16 0.375 216.90651467619742 139.5396985460103 123.70356023403204 0 0 0
623 104 16 0.375 214.57948916196636 145.13202850015062 108.77252642643003 0 0 0
3352 559 12 0 218.5154123299464 139.23399837528228 120.628964155298 0 0 0
624 104 9 0 211.40007976074529 146.57447248461892 110.07518949195251 0 0 0
1499 250 16 0.375 212.48597738120768 131.18950377816108 122.06668490466241 0 0 0
219 37 16 0.375 228.67762504711186 146.13521892569167 110.9256295499404 0 0 0
220 37 12 0 228.45867271862295 149.31349425946834 108.79790758414019 0 0 0
3354 559 9 0 214.91510920239875 140.7758969077239 115.8818175021307 0 0 0
3353 559 16 0.375 216.901271167277 142.0165136451226 118.75106403617757 0 0 0
505 85 9 0 219.22243948540142 144.66357941019552 126.8408719596191 0 1 0
2930 489 12 0 218.43857938638888 151.03054779519275 111.64263241990002 0 0 0
1315 220 9 0 220.27460169089582 131.51375707590438 128.08760525794466 0 0 0
506 85 12 0 215.63127336949287 145.82400736932397 125.90662951449116 0 1 0
507 85 16 0.375 212.2808639151107 145.28204786823557 124.28790061288638 0 1 0
2932 489 12 0 213.62046221453627 150.98434600250434 115.58378766047493 0 0 0
2931 489 16 0.375 217.33751136242225 150.73616000454277 115.15742035023901 0 0 0
217 37 9 0 223.29031029262597 142.3630314769183 113.9320528483509 0 0 0
218 37 12 0 225.36035645096797 145.37630442055627 112.5332161883334 0 0 0
2756 460 12 0 214.8688446762299 151.0107119355314 129.6562595937705 0 0 0
2755 460 9 0 218.78389017884422 150.9847548634974 129.2843370476092 0 0 0
622 104 12 0 218.13931490534497 144.59281398068873 108.22660139353522 0 0 0
840 140 9 0 232.1868848878819 130.96178492504663 126.42563598704021 0 0 0
3050 509 12 0 -238.66390950675742 170.73363684895327 113.55391177638576 1 -1 0
3051 509 16 0.375 -237.11076314439293 172.0971680640151 116.38663360266386 1 -1 0
3049 509 9 0 -239.24950312898548 171.64034152778362 109.76576944372096 1 -1 0
1862 311 12 0 -33.18007605206645 151.49734932023443 113.03359050338675 0 1 1
1861 311 9 0 -33.18781891160979 155.07591652554623 114.92256616294881 0 1 1
3070 512 12 0 64.87787270058928 171.45210023364493 109.92460062464279 0 0 0
3071 512 16 0.375 66.32170162816675 168.17059445768388 111.83996857758898 0 0 0
3072 512 9 0 64.06809448439245 165.1270569811034 112.65293117831258 0 0 0
2607 435 16 0.375 79.90264374887384 161.1541482779106 116.76352240257737 0 0 0
2608 435 12 0 83.92618590649148 160.53818662337886 117.18865744126968 0 0 0
2609 435 16 0.375 87.40205282469321 160.38468373690202 115.57265630356726 0 0 0
2605 435 9 0 72.61922178474698 159.78831636524905 117.28052025536753 0 0 0
2606 435 12 0 76.46364267350376 160.1358314723986 117.27446726664998 0 0 0
496 83 12 0 103.56166945586011 153.05806782907 129.55791834346383 0 0 0
2610 435 9 0 90.06987421644712 161.2389619960049 112.87069549488488 0 0 0
498 83 9 0 105.74813589866231 159.66525444173064 128.68561993125448 0 0 0
3722 621 12 0 110.19853386581369 152.40698015179103 124.48639896030936 0 0 1
3724 621 12 0 113.683387438316 152.42897263455484 129.56325721149452 0 0 1
3723 621 16 0.375 112.23926132321223 154.3813625437704 126.94719235214772 0 0 1
556 93 12 0 122.64360871309792 168.33549642971562 111.38625609691482 0 0 0
558 93 9 0 122.6404865980048 168.19964542227518 117.4786343291809 0 0 0
557 93 16 0.375 121.76704733065344 165.89592109214817 114.42995300180401 0 0 0
903 151 16 0.375 116.54467348923689 172.40862695270394 129.50258348608236 0 1 0
905 151 16 0.375 122.21127577762188 170.12514135967203 129.458457548459 0 1 0
4084 681 12 0 124.26853599866037 155.22749833300773 108.31602561895998 0 0 0
555 93 16 0.375 125.88096805306299 168.3513389388596 108.85752409346694 0 0 0
3259 544 9 0 138.00860339102985 156.45455928411266 126.9568116748236 0 0 1
3867 645 16 0.375 147.68322747175233 151.89919758618024 115.15685504341648 0 0 1
3865 645 9 0 146.75527947133193 157.54827046205037 112.14282250845126 0 0 1
3866 645 12 0 145.52188742001294 154.79491824805348 114.54879916937692 0 0 1
3260 544 12 0 137.0647684326498 154.04484140942463 123.87597646793576 0 0 1
3261 544 16 0.375 136.5448931198703 154.5463541290182 120.22324287269973 0 0 1
3262 544 12 0 136.7061466260994 156.8299955476535 117.26399163470906 0 0 1