# Compound: 2-Methylpropane
pair_coeff  41  41  wf/cut  0.1420   5.3160   1  4  15.9480
# Compound: Cisplatin
pair_coeff  41  41  wf/cut  0.2680   5.6780   1  3  17.0340
# Compound: Phenol
pair_coeff  41  41  wf/cut  0.1116   5.5870   1  3  16.7610
# Compound: Aceticacid
pair_coeff  41  41  wf/cut  0.1177   4.7340   1  3  14.2020
# Compound: Aniline
pair_coeff  41  41  wf/cut  0.0409   5.6540   1  4  16.9620
# File for compound Benzene not found at compounds/Benzene/profile.xvg
# Compound: Benzonitrile
pair_coeff  41  41  wf/cut  0.3457   5.7670   1  3  17.3010
# File for compound Butane not found at compounds/Butane/profile.xvg
# Compound: Cyclopentanol
pair_coeff  41  41  wf/cut  0.1907   5.6280   1  4  16.8840
# Compound: Dioxane
pair_coeff  41  41  wf/cut  0.1201   5.4510   1  4  16.3530
# Compound: Furan
pair_coeff  41  41  wf/cut  0.0412   4.9730   1  4  14.9190
# File for compound Isopropanol not found at compounds/Isopropanol/profile.xvg
# Compound: Nitrobenzene
pair_coeff  41  41  wf/cut  0.4050   5.8910   1  3  17.6730
# Compound: Pyrrole
pair_coeff  41  41  wf/cut  0.0709   5.0721   1  7  15.2163
# Compound: Styrene
pair_coeff  41  41  wf/cut  0.0769   5.9776   1  5  17.9328
# Compound: Thiophenol
pair_coeff  41  41  wf/cut  0.1053   5.7890   1  5  17.3670
# Compound: Toluene
pair_coeff  41  41 wf/cut  0.0000   5.7618   1  1  17.2854
