LAMMPS data file via write_data, version 23 Jun 2022, timestep = 30001000

4724 atoms
41 atom types
3645 bonds
1 bond types

-234 234 xlo xhi
98.07510571384272 189.92489428615687 ylo yhi
98.07510571384272 189.92489428615687 zlo zhi

Masses

1 131.199997
2 57.049999
3 128.199997
4 101.099998
5 156.199997
6 71.08000199999999
7 115.099998
8 129.100006
9 163.199997
10 99.06999999999999
11 113.199997
12 128.100006
13 186.199997
14 147.199997
15 87.08000199999999
16 137.100006
17 114.099998
18 97.120003
19 103.099998
20 113.199997
21 131.199997
22 57.049999
23 128.199997
24 101.099998
25 156.199997
26 71.08000199999999
27 115.099998
28 129.100006
29 163.199997
30 99.06999999999999
31 113.199997
32 128.100006
33 186.199997
34 147.199997
35 87.08000199999999
36 137.100006
37 114.099998
38 97.120003
39 103.099998
40 113.199997
41 58.12

Atoms # full

1001 167 9 0 88.61369700228373 108.23486443990916 110.57681292950161 0 -1 -4
1002 167 9 0 86.42849608979074 105.89393661338045 108.44381581766741 0 -1 -4
608 102 9 0 83.15537473029741 103.77983167008284 100.71966767954443 0 2 -1
607 102 9 0 81.78383805918007 100.26769694854615 101.44415189372532 0 2 -1
3928 655 9 0 91.73236409813275 100.63088707880326 104.40884510735592 0 3 2
3929 655 9 0 94.19273074048296 103.19818690919327 105.87281647998448 0 3 2
3979 664 9 0 90.59299259638382 103.23961185977903 115.99204768623812 0 -2 -1
3980 664 9 0 91.68861051527239 99.92957418674983 116.66277120020541 0 -2 -1
2394 399 9 0 85.62383445402975 116.07948541147029 108.26550680671058 0 -1 1
2393 399 9 0 87.24273626691215 116.76160822174273 105.29823459500052 0 -1 1
1000 167 9 0 92.07459031942025 108.91462884914758 111.6114706335452 0 -1 -4
999 167 9 0 94.95715901679458 110.90985638431536 113.03199218745993 0 -1 -4
4595 0 41 0 95.28072706719425 118.1892915614296 105.44145350799684 -2 -1 -46
4633 0 41 0 91.91829592543685 116.29362588114955 113.54179753023803 -3 95 -8
612 102 9 0 94.02502572002484 112.08559092982604 104.39924541110943 0 2 -1
611 102 9 0 90.63414176580339 110.4072643369224 103.60590493139341 0 2 -1
2392 399 9 0 89.09181940111738 117.50313214113781 101.94562697777118 0 -1 1
609 102 9 0 86.33697125211039 105.05955816877128 102.15703035644333 0 2 -1
610 102 9 0 88.4355676100166 108.38933331303612 101.65107490358872 0 2 -1
1559 260 9 0 87.23401023079795 119.68171288690216 115.49471760150135 0 -2 -7
1560 260 9 0 85.06875175125528 116.45158026782296 116.24084865555271 0 -2 -7
2850 475 9 0 83.45026108575006 107.22774110510522 115.73027741899676 0 0 -2
2849 475 9 0 84.12847004547581 107.53384020888795 119.55401335878912 0 0 -2
2413 403 9 0 89.57578076331549 112.20235433249766 118.07685656912714 0 2 0
2391 399 9 0 91.47666984617474 120.51398666168697 100.62524649648807 0 -1 1
3927 655 9 0 88.58104556706304 98.75680344957092 105.53135110273523 0 3 2
4583 0 41 0 93.92999287484392 99.12251283365829 110.5418780302624 0 -23 -6
3930 655 9 0 97.30510508867879 105.37088756776255 106.34558403047356 0 3 2
3571 596 9 0 115.43185688392444 105.3450490915363 109.69272309232856 0 1 -4
997 167 9 0 96.94365325262604 115.17818722727114 118.50261562679664 0 -1 -4
998 167 9 0 96.64889913033238 113.06829547741135 115.51682838541636 0 -1 -4
35 6 9 0 99.55819034964243 114.07643574639987 98.90336312628227 0 -6 2
3437 573 9 0 99.22701697854636 115.33965650022625 109.19583276108743 0 -3 1
3438 573 9 0 97.68669952309014 118.19371059207212 110.8204195105299 0 -3 1
1157 193 9 0 96.88717221250631 108.21893363902886 120.41040439085751 0 2 -1
3213 536 9 0 102.37011558516654 99.91667953034568 106.06411304233661 0 2 3
3433 573 9 0 97.57818046859325 103.1094360188192 113.49065634221593 0 -3 1
3436 573 9 0 100.66825971191324 111.84584341485537 109.0575613132823 0 -3 1
3434 573 9 0 99.81341344539359 105.81613567521421 112.8063224069606 0 -3 1
1916 320 9 0 106.96149281376609 104.44143686144346 111.7395693436347 0 6 -5
1915 320 9 0 109.05231011396239 103.87706621258094 108.2795400514011 0 6 -5
3435 573 9 0 101.32750044175015 108.78460289290932 111.38998232304372 0 -3 1
779 130 9 0 111.1274164806097 110.36094876448013 115.1530917323002 0 -3 -4
780 130 9 0 111.29303174754442 113.65415454706799 117.52933424076309 0 -3 -4
778 130 9 0 112.16517089451365 106.82643422636457 115.09600226188951 0 -3 -4
1421 237 9 0 102.57802902926866 117.89400709515022 116.79534221786565 0 5 -1
1422 237 9 0 103.96006187044222 114.8401303236185 115.17116283307305 0 5 -1
798 133 9 0 107.0637545804354 111.41986637454379 108.53286615687473 0 -3 5
3216 536 9 0 111.85893819472975 101.27519258283135 102.19981164953359 0 2 3
777 130 9 0 111.91415166977363 103.23152912792776 116.28814617138926 0 -3 -4
797 133 9 0 106.93433251426579 115.15129634798637 107.62693073815794 0 -3 5
1917 320 9 0 105.78027935721529 100.71234494509251 112.96108562542912 0 6 -5
796 133 9 0 105.46135451190436 117.20761755598521 105.11890857529966 0 -3 5
795 133 9 0 102.00929466272704 118.96629989356042 104.39438657591937 0 -3 5
4708 0 41 0 113.57269605899218 111.22540910037843 109.37800989383491 -1 64 7
4421 0 41 0 103.7843072983635 120.20592366656547 110.6861478596544 3 -31 -35
3215 536 9 0 108.00952970546642 101.62535657519726 101.48718684118373 0 2 3
3822 637 9 0 112.98448045299472 119.55610075157999 108.72998217974846 0 4 0
3214 536 9 0 105.0434192071502 101.64567544381906 104.10011749686281 0 2 3
4445 0 41 0 114.55354496952349 119.06559538978483 118.02566389632732 3 44 28
33 6 9 0 105.14021222339018 110.50695342853862 102.22102140443305 0 -6 2
2855 476 9 0 97.939017467892 100.73509901872244 100.57203637150917 0 5 -3
34 6 9 0 101.77321280358214 112.62375159380983 101.82230302614899 0 -6 2
31 6 9 0 112.0325513000099 110.11478745386479 102.41136424334327 0 -6 2
3212 536 9 0 99.29869195017773 98.25476921516517 106.72825183448685 0 2 3
32 6 9 0 108.59071423122958 110.77113646231767 100.81434065972803 0 -6 2
2854 476 9 0 100.61479209481419 102.91313224237024 99.65282156381976 0 5 -3
2396 400 9 0 106.90355041804888 120.50495649363106 98.41670783851346 0 1 -2
36 6 9 0 97.66566063139933 117.21172760831057 99.16486630019975 0 -6 2
3820 637 9 0 108.62298440421034 120.15090301298046 115.17702737002092 0 4 0
3821 637 9 0 110.56878720354568 119.5593630654266 111.74015124153125 0 4 0
1919 320 9 0 101.45784766930578 100.28230521719577 118.07320722519279 0 6 -5
1156 193 9 0 100.05732717139065 109.34588745985785 119.98818218298229 0 2 -1
1155 193 9 0 103.57525639306441 108.73050363351221 118.90804549904573 0 2 -1
776 130 9 0 113.74578408246082 99.93216577018154 116.92434647391579 0 -3 -4
1154 193 9 0 106.3064001449258 106.50758731901918 119.69732582386193 0 2 -1
1918 320 9 0 104.79356276870574 98.96928280520044 116.11709012071728 0 6 -5
4559 0 41 0 -56.02723112368372 131.76701872571266 111.345091977588 1 -12 -11
1556 260 9 0 91.48556107853943 123.97074250757385 107.75671732810116 0 -2 -7
1557 260 9 0 91.69365648313573 121.73613377679197 110.76599953806888 0 -2 -7
1555 260 9 0 89.65779146555447 126.43003674195043 105.22157317701759 0 -2 -7
469 79 9 0 87.53609439658855 143.0054067429849 107.8028837238286 0 -4 0
470 79 9 0 89.72848392021102 139.83619310835988 107.48205624954906 0 -4 0
471 79 9 0 91.67190616377785 136.9134984049017 109.18412205408133 0 -4 0
472 79 9 0 92.44563564977595 135.52176471080253 112.431358022408 0 -4 0
473 79 9 0 91.85892598053766 136.46619935123283 116.17065449426943 0 -4 0
4648 0 41 0 95.14665585890299 126.59209306552808 112.67113708089506 0 -23 30
1558 260 9 0 89.83833101420166 122.22712481834125 114.21522521733154 0 -2 -7
474 79 9 0 93.86158592467534 135.48416779642162 119.43224933875862 0 -4 0
630 105 9 0 94.57069726205894 131.42415504855526 106.33655281103742 0 -2 -1
1417 237 9 0 93.55207833779794 128.5943615211854 119.36804915239757 0 5 -1
2389 399 9 0 96.05389555649022 126.6838626439726 100.6232264096608 0 -1 1
629 105 9 0 92.1638990013544 133.01205942185888 103.92932095183583 0 -2 -1
4510 0 41 0 94.87154171709629 140.57107187404333 102.95428727110561 0 18 22
628 105 9 0 91.11951993249497 134.96957253106106 100.9229441718428 0 -2 -1
2390 399 9 0 94.4224950517368 123.19520013560683 100.74279563434999 0 -1 1
1719 287 9 0 94.82837407955498 142.7154883340796 115.64075539355733 0 4 1
1066 178 9 0 95.89583356440461 143.05911616666282 108.80700749988276 0 -2 5
627 105 9 0 92.2580186944358 137.30080261317576 98.17678187957505 0 -2 -1
4484 0 41 0 100.80569168098755 122.54540679113633 99.05619769243862 -4 -38 -12
2669 445 9 0 114.62984881734555 126.46830297182628 112.5507496536686 0 -5 1
2397 400 9 0 106.97000334418034 123.76896412854876 100.45579380024408 0 1 -2
1671 279 9 0 114.43528016004286 134.4136431472358 99.81297635492609 0 0 0
224 38 9 0 109.25867516933577 129.06343404322882 119.94866284085876 0 -3 -2
1670 279 9 0 110.50416342843093 134.07462339530534 100.46475975863237 0 0 0
1427 238 9 0 110.34234799474791 134.29691318765302 110.53832805447327 0 1 3
1721 287 9 0 100.1483035736416 139.959757489451 119.22056087483888 0 4 1
1420 237 9 0 100.83655399542285 121.18830199421757 116.46113079263479 0 5 -1
3223 538 9 0 101.42203112062424 129.6265981274031 102.34235220501046 0 -1 -2
793 133 9 0 98.96673471366114 125.10180954080298 107.78693917245243 0 -3 5
1428 238 9 0 108.24000815670631 133.0837015704641 113.04285715981969 0 1 3
1426 238 9 0 110.35563221345902 137.3454115779526 107.85324184662068 0 1 3
794 133 9 0 100.94042537489025 122.63756745979425 105.40426666891588 0 -3 5
1419 237 9 0 99.28825719650956 124.23833707351857 117.65111746639911 0 5 -1
4382 0 41 0 103.83996717124364 133.11935743414097 107.88525093553254 -2 16 -10
4573 0 41 0 104.04224463890965 135.3908844827202 118.7656635549048 -2 -63 104
1065 178 9 0 98.11965767380084 139.61335641737227 108.22015027252252 0 -2 5
1418 237 9 0 96.99015182286604 127.20237024356152 119.2591808419204 0 5 -1
1669 279 9 0 108.2314035716915 132.3113066976601 103.0962791771172 0 0 0
2399 400 9 0 107.296947040622 124.52634512272148 107.6243373875144 0 1 -2
2400 400 9 0 107.74644335574939 126.19011158865327 111.07308411239023 0 1 -2
1063 178 9 0 99.17588294461578 135.70940398081387 103.32451790617257 0 -2 5
2398 400 9 0 107.64960194563834 125.18490514448948 103.84865714515392 0 1 -2
42 7 9 0 100.35849235400018 130.61921979400753 113.0617388578262 0 -2 -5
1064 178 9 0 100.35454122653283 138.25871965952408 105.72854658214354 0 -2 5
41 7 9 0 99.93703018673237 134.58589805033117 112.88035325092025 0 -2 -5
1720 287 9 0 97.58331102992 140.4149064228464 116.65052077475842 0 4 1
40 7 9 0 102.93082306690516 137.06966136479053 112.74093977941966 0 -2 -5
223 38 9 0 105.47954878192742 128.45799045064328 119.87868865473726 0 -3 -2
1017 170 9 0 111.94343606484597 140.9607375887149 99.68716300400119 0 -4 1
3224 538 9 0 102.00467746230076 130.87950232603907 98.92610901330114 0 -1 -2
1722 287 9 0 103.17362718476642 142.24859242131706 119.23107043679357 0 4 1
1038 173 9 0 114.88086087651857 122.21618008042626 102.35788272628322 0 4 4
4576 0 41 0 115.0091762163243 129.13517486352552 103.17744720696562 -2 9 76
1425 238 9 0 108.88705272781841 140.97048964100833 107.52670518426568 0 1 3
225 38 9 0 111.93885743302974 131.55259128419402 119.23716747998284 0 -3 -2
3819 637 9 0 108.51560725704549 120.8938007766604 118.9760388671894 0 4 0
1018 170 9 0 114.19432103518314 141.676767480778 102.7376898649093 0 -4 1
1043 174 9 0 110.9382732790437 142.2337357507869 116.34516518687064 0 -3 3
4525 0 41 0 114.66071718766472 141.99645171929373 111.40117666912809 -4 10 -22
2667 445 9 0 114.50721794747082 125.23196447957346 120.06243942624202 0 -5 1
2668 445 9 0 114.02905560885607 125.30342950881965 116.09531707423274 0 -5 1
39 7 9 0 103.45091889935938 140.5592969952173 112.46725416600248 0 -2 -5
1044 174 9 0 109.77533387051741 138.64612128441127 116.09697240910438 0 -3 3
1037 173 9 0 114.43837625349833 123.84720242621559 98.43811256679176 0 4 4
4701 0 41 0 53.97804223229515 116.16522246575148 137.67690115716567 3 25 -7
1088 182 9 0 89.12844691985872 98.71577255924845 123.62770832986605 0 8 -4
3084 514 9 0 90.14600260177146 99.64105578177418 141.8756790478968 0 3 -1
1483 248 9 0 79.96711304729538 113.18471540704982 120.85518410912559 0 -4 0
1484 248 9 0 82.48779352237113 114.91873322340332 123.41435361553307 0 -4 0
1090 182 9 0 96.43913210850314 98.21270977259564 123.44532893319992 0 8 -4
168 28 9 0 80.2676099685177 109.27258097278997 134.321793012539 0 -1 -1
167 28 9 0 80.21143184810501 112.63179474626232 136.09914139354785 0 -1 -1
4548 0 41 0 83.26063901069223 108.63793176886531 140.0674626915694 1 -17 21
3491 582 9 0 92.69997622175045 105.32212646486902 133.9298294889456 0 -2 3
3490 582 9 0 94.50166851433401 106.12792101308845 137.28489015034813 0 -2 3
108 18 9 0 85.55915141502007 114.32557234085564 129.89351250856924 0 -3 -6
107 18 9 0 85.80261221702821 110.87036274663943 131.08330127114127 0 -3 -6
106 18 9 0 86.48572097650683 107.39457083238337 132.73646241140662 0 -3 -6
104 18 9 0 85.96429183363523 100.96640903422976 136.0097694935993 0 -3 -6
2414 403 9 0 91.0585001047223 112.47401516902781 121.17926584050561 0 2 0
2416 403 9 0 94.82907856770198 116.47749300364906 125.48126451928557 0 2 0
2845 475 9 0 93.17732278788544 110.73221458802892 129.9257415386981 0 0 -2
2847 475 9 0 88.62891134895975 107.39978092496854 125.08728114686437 0 0 -2
2846 475 9 0 91.86452247747816 108.30704347401604 127.05183754472299 0 0 -2
2415 403 9 0 91.74269505074435 114.93297856223906 124.18445910775604 0 2 0
2848 475 9 0 85.61325284258012 107.32111771037192 123.11074831126602 0 0 -2
105 18 9 0 85.84312745403282 104.02850698391985 133.7650335194572 0 -3 -6
829 139 9 0 90.6079614134347 111.71035479582589 136.30116871474058 0 4 1
1741 291 9 0 88.58798946640665 106.09022139292902 142.18242361612903 0 2 2
830 139 9 0 90.3446434361626 113.80884037214251 139.76599225794374 0 4 1
1158 193 9 0 94.68708344385924 105.30681811771434 121.65551448547701 0 2 -1
166 28 9 0 82.47523340554778 114.7054572638322 138.10066536453422 0 -1 -1
2168 362 9 0 96.3963558415915 116.5021287034166 141.37000442922462 0 -1 1
2425 405 9 0 79.54208365816855 120.62003118276873 130.9357966929407 0 2 -1
165 28 9 0 83.95768744063167 117.51419032356105 140.34753274096954 0 -1 -1
3492 582 9 0 92.53814666519135 101.71022087716109 132.66629092965618 0 -2 3
1485 248 9 0 85.13095661899337 117.8365003239167 124.25257027653238 0 -4 0
4603 0 41 0 91.89977845329314 116.86146141029353 131.36799067281845 2 -47 -65
1089 182 9 0 92.74787671708052 98.54355473025088 124.83834776854778 0 8 -4
2174 363 9 0 98.54214022330348 109.45123944330665 142.80177438645825 0 2 -1
3832 639 9 0 106.62282861612724 102.13818388279587 141.4035574931347 0 -2 -3
3488 582 9 0 99.61646285850978 101.37982201909008 140.92664296380377 0 -2 3
1920 320 9 0 101.44526910894075 102.40935876592806 121.01407629116068 0 6 -5
488 82 9 0 115.88631255570883 104.95307489072617 142.5836079620684 0 3 0
3834 639 9 0 108.32354959047022 99.30109726394474 134.98692250373972 0 -2 -3
2417 403 9 0 97.35371187796827 117.87364805618641 128.14486880596127 0 2 0
3489 582 9 0 96.63486948033237 103.38391633233485 138.93392476624535 0 -2 3
2167 362 9 0 96.85478602545481 115.02982753684059 137.963764143793 0 -1 1
490 82 9 0 113.03011579245329 98.17813547700511 142.2088383305017 0 3 0
2627 438 9 0 109.91652612668102 109.06940480732408 140.12898164051234 0 7 -4
4479 0 41 0 106.93653044898183 109.37848376142787 125.67471262828327 2 -34 23
3833 639 9 0 106.37206622113487 100.40277966577129 138.07664995908985 0 -2 -3
4668 0 41 0 100.5797619989427 119.3247313524483 122.62781423973797 0 0 55
175 30 9 0 105.42594933079226 114.51408174927603 122.44657780877974 0 3 5
1482 247 9 0 98.92954308454992 105.63325406489751 127.5414218840882 0 1 -3
2273 379 9 0 104.17391751746575 118.29244688976028 134.08654913807928 0 4 -2
2971 496 9 0 113.31459352290139 108.4307382531641 121.48201026267637 0 -5 -2
3817 637 9 0 111.11554196535786 117.8962427974569 125.59705904020878 0 4 0
191 32 9 0 114.72206334404402 115.0567464408675 139.18425918860433 0 -2 2
3818 637 9 0 109.83091168422338 120.12921162525478 122.81610713615687 0 4 0
1153 193 9 0 108.14086466615792 104.02352136655618 122.21607692056935 0 2 -1
1480 247 9 0 105.23297049714779 105.51848556318662 130.35615793386032 0 1 -3
176 30 9 0 102.84398608653308 113.90428169460782 124.95787799519631 0 3 5
177 30 9 0 101.53608428306579 112.54302973810056 128.3990408657262 0 3 5
178 30 9 0 101.03961518602709 111.0575149297741 131.84953636190326 0 3 5
179 30 9 0 101.57728881793825 110.86511434962462 135.51594375113083 0 3 5
180 30 9 0 102.84263456393721 107.38458480052711 136.81992028278802 0 3 5
2623 438 9 0 112.6083733402176 111.39235416428059 129.30728335666856 0 7 -4
1478 247 9 0 112.10444449983594 105.9100191567014 134.0519272251338 0 1 -3
1477 247 9 0 115.0839230804479 106.51895408638364 135.89333300962366 0 1 -3
1479 247 9 0 108.34287563787692 105.81110952608685 132.85832764941512 0 1 -3
2624 438 9 0 109.5118074195842 112.93456684477297 130.6668614686511 0 7 -4
2625 438 9 0 107.90159360929204 112.31188070377121 134.38870055179402 0 7 -4
2626 438 9 0 108.90272894909972 111.96724232836367 137.96976196752428 0 7 -4
1481 247 9 0 102.51838601710787 104.69945356945357 127.44201068282501 0 1 -3
190 32 9 0 112.27047700081063 117.95328996962137 139.49854720360585 0 -2 2
2272 379 9 0 103.51514090233118 117.64116685262093 137.37367536372756 0 4 -2
2271 379 9 0 103.42192843769425 116.11392745669562 140.71642092933075 0 4 -2
189 32 9 0 111.66896656001498 120.08011524912246 136.3754562288622 0 -2 2
2274 379 9 0 105.09684026903697 118.36466083184928 130.3619174936619 0 4 -2
348 58 9 0 113.57261998378041 104.02610515970557 127.16299532433868 0 -2 7
2169 362 9 0 98.34740261113636 119.66063316998313 142.62825376959373 0 -1 1
3091 516 9 0 100.79615370601229 99.52603390861012 133.1206927440307 0 1 2
489 82 9 0 114.3260454912222 101.65199517257025 141.66365445969765 0 3 0
2972 496 9 0 115.85412963473586 111.16783809146271 122.43587344915197 0 -5 -2
2644 441 9 0 115.50438286039727 99.88797779358111 133.61058003099046 0 -1 0
4463 0 41 0 -110.67645864682356 140.0234278853512 121.45741118017155 5 -25 -21
4624 0 41 0 -99.62287275727266 121.83721743492626 128.5236200036879 0 70 12
4564 0 41 0 95.07623691152766 135.00316310525477 125.92236887307325 0 40 -22
4476 0 41 0 95.63217394932836 121.43516379974845 121.80397926782882 4 -3 44
3171 529 9 0 91.78731114967916 122.1503458920049 135.17833545101783 0 -3 2
3170 529 9 0 90.9401572461787 121.58589076483413 138.78097982681666 0 -3 2
163 28 9 0 78.45431796262663 121.77980618053952 139.28426127041917 0 -1 -1
164 28 9 0 82.32798225442092 121.0245209752105 140.73046443742027 0 -1 -1
1486 248 9 0 85.58080853862043 121.30545515759798 125.49291502723129 0 -4 0
1487 248 9 0 85.38678609329563 124.88606520015331 126.60612202907767 0 -4 0
1488 248 9 0 86.05215675310816 128.64605482904577 127.79106728163964 0 -4 0
3172 529 9 0 91.86139179983027 123.50859800269251 131.69468408085152 0 -3 2
3173 529 9 0 92.10661174674922 123.23716104078926 127.91111722335869 0 -3 2
2426 405 9 0 82.66071756871881 122.27987744793651 132.8107390342927 0 2 -1
3174 529 9 0 91.86276173388327 125.5188305569282 125.01159728060918 0 -3 2
2427 405 9 0 85.36259165100452 124.15314987761175 134.940348758086 0 2 -1
2428 405 9 0 87.0469123098218 127.48736619940111 135.69911500760966 0 2 -1
2429 405 9 0 87.90584277816176 130.2221991144065 138.44308997701236 0 2 -1
2430 405 9 0 88.17249414097631 133.1054920538473 140.535754697015 0 2 -1
4097 683 9 0 94.82606903725286 141.14756108320933 135.94265837678893 0 -1 3
4301 717 9 0 91.97878222787871 134.19736771579213 132.5753642201531 0 3 -3
4302 717 9 0 90.56002445861117 137.9185550404857 132.0662890328611 0 3 -3
3169 529 9 0 91.01768901457132 121.78685703869324 142.26803686029174 0 -3 2
3726 621 9 0 82.32080244104743 130.49986520968963 142.84133414556533 0 2 9
4300 717 9 0 93.8555837438276 131.64267276543467 130.78199840357254 0 3 -3
2172 362 9 0 95.23569639104946 128.30404925749298 136.9246445351706 0 -1 1
4096 683 9 0 96.28715778659027 137.8274965974626 136.368906516541 0 -1 3
3721 621 9 0 94.97801030463674 132.5709238275525 142.0681178326645 0 2 9
1353 226 9 0 115.2716835132464 131.29735275169892 137.4247195351362 0 6 1
502 84 9 0 106.22705483024556 135.01405246063092 124.48549276991679 0 -2 0
4531 0 41 0 112.72163231789072 129.21577764116947 131.882292813171 3 -50 9
1352 226 9 0 112.89941349591227 130.73094367531777 140.23363796790156 0 6 1
4297 717 9 0 101.46215996287566 125.43390284110063 124.87697673292237 0 3 -3
4496 0 41 0 103.79706526534699 132.11700223463575 130.99179012767343 -3 -14 -49
227 38 9 0 114.91487899751887 137.81429811192353 121.19302267718884 0 -3 -2
226 38 9 0 112.85154477089638 134.59787494807054 121.20389444898517 0 -3 -2
188 32 9 0 112.5959972383699 122.66137160369912 133.75729000815238 0 -2 2
2170 362 9 0 97.69042020698157 123.31562444466009 141.93390495822806 0 -1 1
187 32 9 0 115.06862386172581 122.63440191903287 130.77550418911082 0 -2 2
4563 0 41 0 103.01936676567728 142.58027357090114 125.87840551880525 -6 25 25
2171 362 9 0 96.6073953252719 125.68438809896404 139.42869779495314 0 -1 1
2161 361 9 0 97.16108984000458 140.06020816466182 129.16828855635825 0 0 -3
1111 186 9 0 102.48819894697431 125.81792601384628 134.76624777550833 0 0 2
1351 226 9 0 110.6513871110456 128.77306857860265 142.26223531945843 0 6 1
4447 0 41 0 113.92534507985688 137.027736743638 140.52157221221034 0 37 -44
4094 683 9 0 100.98723530834702 132.86347876777637 137.1297956992557 0 -1 3
4095 683 9 0 98.74071775927307 134.94334478026514 135.32888100890628 0 -1 3
1113 186 9 0 105.93311836312846 123.78382731402317 140.94727842212268 0 0 2
2164 361 9 0 107.64495013520381 137.8158118516917 132.34038093484236 0 0 -3
2418 403 9 0 98.92570715455942 120.9086253833589 128.78420813490274 0 2 0
2162 361 9 0 100.57849600768527 137.59622702206303 129.5503278707956 0 0 -3
1971 329 9 0 106.01418045736415 140.26873583638914 140.1854031461461 0 1 -4
4298 717 9 0 100.08028761275177 128.0074972425466 127.44969767561936 0 3 -3
4299 717 9 0 96.84806420246449 129.3743082427973 129.1743418175002 0 3 -3
500 84 9 0 108.03531646976661 129.181245066083 127.55373777191926 0 -2 0
2621 437 9 0 109.51055257406468 142.62255076782031 126.93634657737212 0 4 4
4424 0 41 0 98.23221834919688 121.19208522474602 135.22033731469065 -1 8 -10
501 84 9 0 108.78097140176641 132.8796263610477 126.7864583760237 0 -2 0
4591 0 41 0 101.20678514605984 142.57767092674922 137.12897422325898 0 -26 22
1490 249 9 0 115.75562565041196 123.25899320592575 141.5082452738193 0 0 -1
2622 437 9 0 109.76769357878653 141.3206432311615 123.48714885300028 0 4 4
1112 186 9 0 104.82325118976884 125.02519920957519 137.54816804069915 0 0 2
503 84 9 0 102.38783699393018 133.92631193704884 124.6075258521978 0 -2 0
2163 361 9 0 104.34591157245447 138.4706216862986 130.8377950169427 0 0 -3
2166 361 9 0 107.77892606998438 131.29198701883706 135.60189456204307 0 0 -3
1356 226 9 0 113.84851303880667 137.0509486447138 128.8753223228894 0 6 1
1972 329 9 0 107.42903607220042 143.5853027366688 138.68745529929302 0 1 -4
499 84 9 0 107.62127547803347 126.30995617543053 129.3641096653717 0 -2 0
2165 361 9 0 108.84500838960956 134.64432308432364 134.1761599651132 0 0 -3
4093 683 9 0 101.80793190993079 131.0596090446662 140.36949759793794 0 -1 3
504 84 9 0 99.87359751512166 132.74827147416468 121.99934968137276 0 -2 0
2665 445 9 0 115.54186148067552 129.58941357680473 125.97106901748964 0 -5 1
2156 360 9 0 125.14595684915713 106.03668737969942 111.9754412522559 0 0 -1
2157 360 9 0 127.52735514588996 104.46507087720956 114.61431268057217 0 0 -1
2158 360 9 0 131.1721305196525 103.52906987184925 114.47309099837797 0 0 -1
3783 631 9 0 127.25747055193243 115.77704483387355 109.73371498954336 0 -1 0
19 4 9 0 127.8889473619984 111.878115864842 116.72995376555222 0 3 -1
14 3 9 0 140.347791353859 112.08127850414728 98.40034277910806 0 7 -6
15 3 9 0 139.5798731398205 110.31044566878855 101.55718764654443 0 7 -6
16 3 9 0 141.16231190300988 109.6436641264252 104.9393763832083 0 7 -6
3782 631 9 0 127.99436635261179 118.28069588172517 112.39335002927679 0 -1 0
17 3 9 0 140.44405885710458 111.36411870500352 108.50764496570358 0 7 -6
839 140 9 0 127.85459791176503 100.963042746368 107.29656202820689 0 4 3
3784 631 9 0 128.99350536920838 112.22761201463689 108.95339437564701 0 -1 0
3785 631 9 0 131.4787382115054 109.69363612389931 107.35066729820446 0 -1 0
3786 631 9 0 133.92335168386452 107.4900382749053 105.38892944440937 0 -1 0
3572 596 9 0 116.06396535528025 106.32316567953002 106.16725233822557 0 1 -4
1881 314 9 0 140.41262754550795 118.14547992127684 112.55257700789186 0 -4 3
1562 261 9 0 130.18216740954688 110.156454725203 99.79169272762815 0 -4 0
1563 261 9 0 126.03552589086078 110.23945777540204 100.24130188730929 0 -4 0
1564 261 9 0 123.89964070723427 113.02506866125475 101.4341179394351 0 -4 0
840 140 9 0 128.12585317500267 103.41329249000971 104.55254149018629 0 4 3
4037 673 9 0 142.0970438797289 98.4246388048299 110.26348311345112 0 2 -2
1565 261 9 0 121.28981609894787 114.46398709756613 103.7451753882361 0 -4 0
2159 360 9 0 134.2305226128497 103.40319759280642 112.02276773081807 0 0 -1
1566 261 9 0 117.71756537023964 115.24210049413743 103.12203336290693 0 -4 0
3205 535 9 0 134.3794870430711 115.9870322256037 106.07661422459579 0 2 4
3206 535 9 0 136.03812287847902 116.62528239926804 102.4126760860492 0 2 4
2155 360 9 0 122.8969028991021 108.72970553439944 110.14136802267474 0 0 -1
2975 496 9 0 121.00941092896957 119.48454423096273 118.7766668492534 0 -5 -2
379 64 9 0 140.82260724351246 103.40114697006345 114.29353315568972 0 2 2
380 64 9 0 139.1418901854326 105.34301102456547 116.88644278377946 0 2 2
18 3 9 0 137.44896404185442 111.79973599194656 110.84186495126151 0 7 -6
2160 360 9 0 135.6318558272936 101.10283370927893 108.98535417345987 0 0 -1
381 64 9 0 137.8865427603329 108.8384628441462 117.54112846573152 0 2 2
382 64 9 0 139.43333639243446 112.24486506708925 118.67987841256023 0 2 2
1014 169 9 0 118.14436525108138 115.57665575337576 111.36734298437713 0 -6 2
1879 314 9 0 145.19675446782935 113.04882764291185 114.56643719732732 0 -4 3
3138 523 9 0 133.5256761529758 115.66719345719085 115.44277983181016 0 -1 -4
1013 169 9 0 117.44831081662666 113.67505136093453 114.66900348998749 0 -6 2
3303 551 9 0 138.5176580090077 99.27393967638685 102.32591347905718 0 2 3
1011 169 9 0 118.8804310403463 106.17164462246528 115.21867358739833 0 -6 2
20 4 9 0 126.83622429394242 114.86927252807797 118.38341668403454 0 3 -1
1010 169 9 0 119.12139335509815 103.78821366807853 118.18393791762118 0 -6 2
4320 720 9 0 119.48991244816285 100.76239042871468 106.32856854901347 0 8 0
3574 596 9 0 120.35912041811456 105.44013400807079 100.97668126581932 0 1 -4
1882 314 9 0 139.22067454879098 120.13389088957034 109.36895468919289 0 -4 3
3798 633 9 0 129.53239198581974 118.38557250501078 99.30739345227877 0 1 2
1880 314 9 0 143.37418489576376 116.46835982736562 114.28359837049648 0 -4 3
3137 523 9 0 135.38739351847525 117.56416734749814 118.22544544607887 0 -1 -4
3304 551 9 0 135.4205152155044 100.80314458994941 100.68036882233852 0 2 3
3305 551 9 0 132.68692093122607 102.15425585042843 98.24621569961317 0 2 3
199 34 9 0 146.48992121109598 111.99565241083887 101.984643801344 0 -7 1
4451 0 41 0 140.45537273994515 98.75821676885519 119.04263997389917 -5 -8 54
1012 169 9 0 117.91886815709225 109.98041747646387 115.6599282406326 0 -6 2
3573 596 9 0 118.87430120851867 107.47326676677491 103.63730455677266 0 1 -4
2185 365 9 0 145.4765036624345 104.73569566059945 102.3934219073211 0 -5 -2
2281 381 9 0 146.0984819016773 116.26542883229016 108.12187360087296 0 0 -4
3207 535 9 0 138.75778205501354 119.56022548904023 102.20141992624424 0 2 4
3797 633 9 0 128.27873758585216 119.06429871370902 103.05550409299455 0 1 2
4556 0 41 0 121.9668176974803 120.05018921397551 100.55124867030624 1 -74 -9
4666 0 41 0 144.3317052124879 108.33473157168355 119.15446721562496 -1 -22 -42
4319 720 9 0 121.14482433244085 100.20358844639364 109.34789690726883 0 8 0
2282 381 9 0 146.3201758888834 119.55858192039132 105.86965951685788 0 0 -4
1561 261 9 0 133.57169505451128 110.98023100405064 98.5116649597928 0 -4 0
838 140 9 0 129.4172137937773 98.48507396327693 109.43074619209634 0 4 3
4318 720 9 0 122.81885697125755 98.63881416188218 112.52017158829256 0 8 0
4036 673 9 0 145.2991283833089 99.72637376413817 108.35621136646024 0 2 -2
1883 314 9 0 136.3654199964241 122.30745411787127 108.1210842639687 0 -4 3
3781 631 9 0 128.87959137459933 121.38896603169414 113.8490784889857 0 -1 0
4599 0 41 0 121.889346693523 141.67654717022646 116.20539190686112 -1 9 27
1884 314 9 0 134.35481860191655 123.46948367500507 104.92955515001893 0 -4 3
2976 496 9 0 124.32777565021172 121.49919996950486 118.86243502871851 0 -5 -2
825 138 9 0 143.6951637430523 133.89661531161974 108.22109708172547 0 -4 -2
2887 482 9 0 133.24339004169428 142.1703055070199 113.73201348814193 0 -6 -3
3583 598 9 0 121.10603290357008 126.33406062507885 103.19705989126683 0 -3 2
3693 616 9 0 122.37174588289871 132.2264473719295 105.3978725271803 0 0 -1
4721 0 41 0 142.67894981754202 141.65226761432174 106.67969663516867 0 9 -13
2148 358 9 0 143.55719810531843 130.204753598142 100.35473812309829 0 -3 0
3134 523 9 0 139.38411087848593 126.38043938700864 114.10306582241961 0 -1 -4
1019 170 9 0 117.23468233594579 139.5406175530395 104.076165956868 0 -4 1
3209 535 9 0 141.1004200513257 125.58615496024142 104.13086515360804 0 2 4
3210 535 9 0 141.31652302005367 127.43344315597884 107.36909948298151 0 2 4
3793 633 9 0 130.35750845113628 132.0126269301878 104.55312075713539 0 1 2
3480 580 9 0 137.32454595683427 139.27704527189215 104.2168416623859 0 -2 -1
3794 633 9 0 128.85182340992495 128.94456009702904 104.40469777859633 0 1 2
3795 633 9 0 127.25407876230507 125.88305908815427 105.54949088779695 0 1 2
4698 0 41 0 123.9789764274485 138.6404667693403 105.15984438680262 -1 23 -10
3796 633 9 0 127.71892380711266 122.44975023784026 104.26634050399139 0 1 2